nspe_10 in water
 2819
    1HCP      H    1   2.383   2.840   2.890  0.8899  0.8794  0.4322
    2R02      N    2   2.402   2.815   2.794  0.4710  0.3169  0.4958
    2R02     C1    3   2.526   2.750   2.763 -0.5245  0.6610  0.6513
    2R02     H1    4   2.526   2.742   2.653 -2.7343  2.3037  0.4765
    2R02     C2    5   2.642   2.828   2.809  0.1110  0.2125  0.6315
    2R02     H2    6   2.737   2.783   2.778  0.2476  0.0901  1.2185
    2R02     H3    7   2.628   2.825   2.918 -2.3354 -0.5031  0.3689
    2R02     H4    8   2.636   2.933   2.777  1.7699  0.9825  2.6647
    2R02     C3    9   2.545   2.609   2.816 -0.6308 -0.7025  0.8295
    2R02     C4   10   2.492   2.570   2.939  0.3798 -0.1180 -0.2981
    2R02     H5   11   2.434   2.640   2.999 -0.1735  0.4402 -1.4453
    2R02     C5   12   2.506   2.440   2.982 -0.3454 -0.0165 -0.2639
    2R02     H6   13   2.471   2.395   3.074  1.6286 -1.8565 -0.3447
    2R02     C6   14   2.576   2.346   2.908 -0.3196  1.2011  0.7714
    2R02     H7   15   2.580   2.245   2.946 -1.4459  0.9735  0.3236
    2R02     C7   16   2.625   2.379   2.782  0.4460 -0.0622  1.0741
    2R02     H8   17   2.672   2.300   2.724 -0.4384 -0.7081  1.1975
    2R02     C8   18   2.618   2.515   2.738  0.6722  0.6814  0.0917
    2R02     H9   19   2.673   2.543   2.648  2.3002  1.7062  1.3469
    2R02     CA   20   2.282   2.756   2.734  0.1689  0.3433 -0.0493
    2R02    H10   21   2.323   2.671   2.680  3.0309  2.5011 -1.5558
    2R02    H11   22   2.234   2.822   2.660 -0.5553 -1.5225 -1.2999
    2R02      C   23   2.175   2.712   2.838  0.0544  0.3600 -0.1599
    2R02      O   24   2.174   2.770   2.946  0.2078  0.1809  0.3955
    3R02      N   25   2.091   2.609   2.805 -1.1408  0.1845  0.4929
    3R02     C1   26   1.984   2.572   2.902  0.0355 -0.7244  0.3640
    3R02     H1   27   1.951   2.660   2.959 -2.3346 -0.4536 -1.2681
    3R02     C2   28   1.852   2.535   2.830  1.0758 -0.7768  0.1898
    3R02     H2   29   1.862   2.443   2.770  2.0604  0.0930 -1.0193
    3R02     H3   30   1.821   2.603   2.751  3.5644 -0.3147 -0.4696
    3R02     H4   31   1.772   2.525   2.904  0.5593  0.1386 -0.2385
    3R02     C3   32   2.015   2.467   3.008 -0.0958  0.6218  0.2402
    3R02     C4   33   2.138   2.401   3.022  0.5543  0.2608 -0.2009
    3R02     H5   34   2.211   2.427   2.945  0.2647 -0.5065 -0.7529
    3R02     C5   35   2.168   2.322   3.132  0.2706  0.3647  0.4855
    3R02     H6   36   2.266   2.275   3.137  0.2482 -0.2948 -3.0850
    3R02     C6   37   2.070   2.302   3.230 -0.2420  0.3814  0.2548
    3R02     H7   38   2.098   2.229   3.304  0.9462 -1.8654 -2.2185
    3R02     C7   39   1.944   2.366   3.217  1.0550 -0.6639 -0.6992
    3R02     H8   40   1.868   2.363   3.295  1.1141  3.4290 -0.2654
    3R02     C8   41   1.923   2.449   3.109  0.9266 -0.3982  0.2429
    3R02     H9   42   1.834   2.510   3.112  1.0083 -0.1309 -1.7311
    3R02     CA   43   2.105   2.524   2.682  0.3281  0.3233 -0.2257
    3R02    H10   44   2.060   2.424   2.691  3.1804 -1.0144  0.5244
    3R02    H11   45   2.208   2.490   2.666 -0.2814 -2.2585  0.7753
    3R02      C   46   2.041   2.588   2.554 -1.1804 -0.2078 -0.9893
    3R02      O   47   1.987   2.697   2.556  0.3395 -0.1613 -0.0335
    4R02      N   48   2.051   2.517   2.438 -0.0897 -0.0894  0.4854
    4R02     C1   49   2.005   2.581   2.309 -0.0211 -0.1595  0.1052
    4R02     H1   50   1.974   2.684   2.334  0.3315 -0.1732  0.6077
    4R02     C2   51   2.110   2.601   2.199  0.3994 -0.3253  0.0121
    4R02     H2   52   2.066   2.652   2.112  2.8253  2.2510  0.1561
    4R02     H3   53   2.148   2.503   2.166 -0.8682 -1.3501  1.4437
    4R02     H4   54   2.197   2.657   2.235 -2.1522  2.6033  2.2539
    4R02     C3   55   1.877   2.519   2.257  0.3218  0.1694  0.1571
    4R02     C4   56   1.759   2.581   2.295 -0.1875  0.3883  0.0871
    4R02     H5   57   1.751   2.649   2.379 -3.5487  0.0784  0.1605
    4R02     C5   58   1.634   2.532   2.238 -0.2345 -0.4640 -0.4972
    4R02     H6   59   1.539   2.581   2.258  0.4004  0.9903 -0.8938
    4R02     C6   60   1.645   2.442   2.132  0.6858 -0.4876 -0.1250
    4R02     H7   61   1.556   2.434   2.071  1.3093  1.7068 -1.4570
    4R02     C7   62   1.767   2.384   2.098  0.0212  0.6270  0.2331
    4R02     H8   63   1.768   2.302   2.026 -1.4761 -1.2777  2.2570
    4R02     C8   64   1.882   2.415   2.160  0.4023  0.2833 -0.4955
    4R02     H9   65   1.978   2.383   2.121  0.6199  0.7712 -0.3677
    4R02     CA   66   2.115   2.383   2.413 -0.0616  0.5667 -0.6465
    4R02    H10   67   2.063   2.330   2.332 -0.2468  0.4246 -0.4363
    4R02    H11   68   2.116   2.320   2.502 -0.4307  0.4506 -0.7227
    4R02      C   69   2.265   2.401   2.379  0.8179 -0.2649 -0.3214
    4R02      O   70   2.324   2.494   2.431 -1.0673  0.7823 -0.1301
    5R02      N   71   2.329   2.307   2.289  0.2363  0.8100 -0.6970
    5R02     C1   72   2.249   2.209   2.211 -0.0136 -0.2470  0.3017
    5R02     H1   73   2.162   2.249   2.159  0.3166 -1.5118 -1.2866
    5R02     C2   74   2.324   2.122   2.109 -0.5898  0.4859  0.3347
    5R02     H2   75   2.405   2.067   2.158 -1.4624 -0.8251  0.3449
    5R02     H3   76   2.372   2.179   2.028  1.9245 -0.0200  1.3660
    5R02     H4   77   2.255   2.056   2.055  0.4633 -1.1057  0.8494
    5R02     C3   78   2.189   2.106   2.310  0.2808  0.0418  0.3903
    5R02     C4   79   2.263   2.058   2.420 -0.0920 -0.4097 -0.1047
    5R02     H5   80   2.358   2.107   2.438 -0.9933  1.8266 -1.0659
    5R02     C5   81   2.216   1.955   2.496 -0.0828 -0.6932  0.0741
    5R02     H6   82   2.281   1.907   2.569  0.9480  1.9265  1.0126
    5R02     C6   83   2.082   1.920   2.479 -0.3065  0.3626  0.1974
    5R02     H7   84   2.042   1.855   2.556  1.1172  1.1009  1.6224
    5R02     C7   85   1.999   1.982   2.384 -0.6190 -0.1072  0.1518
    5R02     H8   86   1.892   1.961   2.382 -0.7219  0.2755  1.0477
    5R02     C8   87   2.055   2.059   2.287 -0.8214  0.4443  0.3525
    5R02     H9   88   2.005   2.096   2.198 -1.8853  0.4078  0.9196
    5R02     CA   89   2.477   2.327   2.258  0.1788 -0.8304  0.6317
    5R02    H10   90   2.531   2.232   2.247 -1.2724 -1.6105 -0.0779
    5R02    H11   91   2.528   2.371   2.344 -2.2780  1.5508  1.0020
    5R02      C   92   2.503   2.407   2.128 -0.8058  0.0830 -0.6548
    5R02      O   93   2.426   2.488   2.086  0.1083 -0.1283 -0.3017
    6R02      N   94   2.628   2.393   2.071 -0.2653  0.5376 -0.4154
    6R02     C1   95   2.743   2.314   2.126 -0.4806  0.7074  0.5503
    6R02     H1   96   2.700   2.214   2.139 -1.8506  0.8546 -2.1994
    6R02     C2   97   2.862   2.274   2.029  0.9727 -0.1967 -0.3554
    6R02     H2   98   2.828   2.252   1.927 -0.4724 -1.0211  0.2687
    6R02     H3   99   2.926   2.195   2.072  1.2673 -1.0885 -2.3089
    6R02     H4  100   2.923   2.363   2.011 -1.9687  1.5296 -2.8561
    6R02     C3  101   2.804   2.380   2.249 -0.0809  0.0729 -0.2050
    6R02     C4  102   2.858   2.513   2.242  0.2845 -0.1894 -0.2115
    6R02     H5  103   2.831   2.567   2.152 -0.9860 -1.0450 -0.3579
    6R02     C5  104   2.914   2.574   2.355 -0.0063  0.5645  0.2135
    6R02     H6  105   2.947   2.677   2.352 -1.6020  1.0857 -2.6802
    6R02     C6  106   2.931   2.495   2.469  0.3143  0.1951  0.3471
    6R02     H7  107   2.986   2.532   2.554 -2.2548 -0.1566  2.2683
    6R02     C7  108   2.885   2.360   2.478  0.0279  0.0747 -0.2253
    6R02     H8  109   2.898   2.295   2.564 -1.4400  1.0496  0.7868
    6R02     C8  110   2.821   2.302   2.369 -0.1098 -0.0633 -0.0116
    6R02     H9  111   2.797   2.196   2.379 -0.4150  0.0487  0.4963
    6R02     CA  112   2.663   2.470   1.948  0.1987  0.6954 -0.4792
    6R02    H10  113   2.768   2.498   1.945 -0.2653  2.6514  0.3464
    6R02    H11  114   2.608   2.565   1.951  0.1065  0.6164  0.9931
    6R02      C  115   2.633   2.387   1.824  0.4721  0.6486  0.0265
    6R02      O  116   2.608   2.266   1.832  0.2372 -0.2839 -0.7410
    7R02      N  117   2.639   2.448   1.700  0.2725 -0.3029 -0.0869
    7R02     C1  118   2.623   2.593   1.679 -0.0894 -0.3019 -0.4922
    7R02     H1  119   2.682   2.630   1.764  0.8234  0.7575 -1.5590
    7R02     C2  120   2.704   2.655   1.557 -0.4975  0.3623  0.0355
    7R02     H2  121   2.642   2.666   1.467 -0.6475  2.3079  0.3410
    7R02     H3  122   2.790   2.591   1.536 -2.0010 -1.7491  0.0070
    7R02     H4  123   2.743   2.756   1.572  1.5580 -0.1307 -1.5272
    7R02     C3  124   2.481   2.642   1.696  0.3377  0.4667  0.1510
    7R02     C4  125   2.444   2.746   1.787 -0.1439  0.1939  0.2125
    7R02     H5  126   2.516   2.791   1.855 -0.6722 -0.4829  1.2398
    7R02     C5  127   2.310   2.785   1.803  0.2618 -0.6900 -0.3805
    7R02     H6  128   2.282   2.868   1.867  3.0897 -0.4247  0.6511
    7R02     C6  129   2.208   2.721   1.734  0.8861  0.3680 -0.2513
    7R02     H7  130   2.105   2.755   1.743  0.5979 -0.4411 -0.4422
    7R02     C7  131   2.235   2.604   1.666 -0.5242  0.4404  0.3887
    7R02     H8  132   2.159   2.529   1.647 -1.6568  0.9326  2.6058
    7R02     C8  133   2.367   2.569   1.646 -0.1807 -1.1531  0.6165
    7R02     H9  134   2.388   2.478   1.591 -0.9702 -0.3727 -1.0619
    7R02     CA  135   2.629   2.366   1.573  0.4092 -0.3695 -0.2696
    7R02    H10  136   2.587   2.428   1.492 -0.2091 -0.0501  0.2901
    7R02    H11  137   2.552   2.288   1.580 -0.5224  0.4486 -1.0177
    7R02      C  138   2.774   2.315   1.528  0.4067 -0.2097  0.6826
    7R02      O  139   2.870   2.344   1.598 -0.0404 -0.1305 -0.4184
    8R02      N  140   2.793   2.234   1.417 -0.4200  0.3627  0.8494
    8R02     C1  141   2.929   2.178   1.382 -0.4670  0.8485  0.0394
    8R02     H1  142   3.006   2.256   1.395  0.5020 -0.3455  1.7829
    8R02     C2  143   2.969   2.062   1.471 -0.1812  0.6870  0.3593
    8R02     H2  144   3.077   2.043   1.457 -0.7651 -1.4590 -2.0001
    8R02     H3  145   2.918   1.969   1.443  1.7651 -1.0668  2.2512
    8R02     H4  146   2.932   2.093   1.569  0.8608 -0.7782  1.2646
    8R02     C3  147   2.942   2.139   1.234 -0.2821  0.1630  0.2436
    8R02     C4  148   3.003   2.232   1.148 -0.0615  0.9572  0.0808
    8R02     H5  149   3.055   2.321   1.183  2.3696 -0.1673 -0.4492
    8R02     C5  150   3.009   2.210   1.009  0.0780  0.1940  0.4620
    8R02     H6  151   3.060   2.282   0.946 -0.8910  2.1493  1.8336
    8R02     C6  152   2.966   2.089   0.949  0.2702  0.0246  0.3970
    8R02     H7  153   2.982   2.062   0.845  0.5404  0.0041  0.4433
    8R02     C7  154   2.914   1.997   1.037 -0.0479  0.5538 -0.2029
    8R02     H8  155   2.868   1.906   0.998  0.6897  1.0100 -2.2750
    8R02     C8  156   2.890   2.021   1.175  0.3267 -0.7111 -0.6228
    8R02     H9  157   2.830   1.952   1.232  0.6940 -0.6124 -0.1114
    8R02     CA  158   2.679   2.201   1.329  0.6220 -0.4078  0.0545
    8R02    H10  159   2.710   2.214   1.225  0.6434 -2.1279 -0.1770
    8R02    H11  160   2.604   2.281   1.337  0.4525 -0.4743 -0.7241
    8R02      C  161   2.617   2.060   1.350 -0.6349 -0.3442  0.0275
    8R02      O  162   2.642   2.003   1.453  0.6093  0.1679 -0.2038
    9R02      N  163   2.536   2.002   1.251 -0.5829 -0.3359 -0.1182
    9R02     C1  164   2.526   2.065   1.116  0.3151  0.1247  0.0732
    9R02     H1  165   2.629   2.070   1.077 -0.9908 -1.6321 -4.2054
    9R02     C2  166   2.457   1.970   0.996  0.6090 -0.2385 -0.3193
    9R02     H2  167   2.505   1.871   0.989  2.1839  0.3962  0.8495
    9R02     H3  168   2.485   2.012   0.899  2.1651 -1.1154 -0.2881
    9R02     H4  169   2.348   1.967   0.997  0.5926  0.1844  1.0473
    9R02     C3  170   2.446   2.196   1.113 -0.8756  0.3066 -0.2747
    9R02     C4  171   2.317   2.205   1.160 -0.0338 -0.7111  0.1267
    9R02     H5  172   2.262   2.112   1.177  1.0677 -1.0593  1.9446
    9R02     C5  173   2.244   2.321   1.146 -0.1104 -0.0394 -0.2347
    9R02     H6  174   2.140   2.325   1.176 -0.0108 -0.4484  0.1751
    9R02     C6  175   2.308   2.433   1.092 -0.5245  0.3979  0.0781
    9R02     H7  176   2.251   2.526   1.094 -1.4974 -0.1904  0.3035
    9R02     C7  177   2.444   2.429   1.064 -0.6989  0.5925  0.0207
    9R02     H8  178   2.492   2.517   1.020  0.4139  1.0009  1.9470
    9R02     C8  179   2.516   2.307   1.075  0.3086 -0.3504 -0.7748
    9R02     H9  180   2.622   2.303   1.050  1.0346 -0.6378  1.9544
    9R02     CA  181   2.468   1.875   1.283 -0.6310  0.5715  0.8927
    9R02    H10  182   2.371   1.869   1.231 -0.6111  0.8535  0.8239
    9R02    H11  183   2.459   1.884   1.392  0.8291 -1.3122  1.2207
    9R02      C  184   2.554   1.747   1.258 -0.0298  0.5294  0.0531
    9R02      O  185   2.624   1.730   1.156  0.6700  0.5497 -0.1309
   10R02      N  186   2.532   1.644   1.348 -0.4919  0.3480  0.0854
   10R02     C1  187   2.595   1.504   1.324  0.1886 -0.1823 -0.1391
   10R02     H1  188   2.638   1.512   1.223  0.8381 -0.0588  0.1458
   10R02     C2  189   2.715   1.474   1.405 -0.1557  0.3396  0.6211
   10R02     H2  190   2.752   1.373   1.387 -1.1811  0.2825 -1.4489
   10R02     H3  191   2.692   1.490   1.511 -0.9721  0.8794  0.3811
   10R02     H4  192   2.790   1.548   1.374 -0.9849  0.7153 -0.5933
   10R02     C3  193   2.492   1.380   1.324  0.2440 -0.1123  0.4033
   10R02     C4  194   2.449   1.321   1.442 -0.1705 -1.3315 -0.1927
   10R02     H5  195   2.491   1.349   1.538 -0.8168 -0.3926 -0.1704
   10R02     C5  196   2.352   1.225   1.441  0.5426  0.3398 -0.0095
   10R02     H6  197   2.314   1.191   1.537 -2.4162  1.2782 -0.7226
   10R02     C6  198   2.301   1.174   1.321 -0.6759 -0.1711  0.1643
   10R02     H7  199   2.227   1.096   1.335 -0.3756 -0.0320  3.1162
   10R02     C7  200   2.345   1.228   1.205 -1.0484 -0.0527  0.2593
   10R02     H8  201   2.305   1.184   1.114  2.2590  1.4535 -2.1548
   10R02     C8  202   2.449   1.323   1.203  0.2523  0.2321  0.4925
   10R02     H9  203   2.489   1.355   1.107 -0.1735 -0.7747 -0.0357
   10R02     CA  204   2.475   1.661   1.486  0.1654  0.1128  0.7675
   10R02    H10  205   2.463   1.563   1.532  0.9201 -0.2703  0.1754
   10R02    H11  206   2.372   1.694   1.466  0.0832 -0.5679  0.0314
   10R02      C  207   2.550   1.737   1.590 -0.1978 -0.8722 -0.3297
   10R02      O  208   2.657   1.702   1.626  0.2768  0.1411  0.2335
   11R02      N  209   2.486   1.838   1.662  0.8787  0.3002  0.0391
   11R02     C1  210   2.329   1.844   1.666 -0.3275  0.1053  0.1667
   11R02     H1  211   2.286   1.746   1.642 -1.5638  0.6252  0.2004
   11R02     C2  212   2.273   1.874   1.797  0.5891 -0.2329 -1.0076
   11R02     H2  213   2.166   1.853   1.793  0.2237  1.3869 -0.5650
   11R02     H3  214   2.278   1.979   1.829 -0.0548 -0.5089  0.0474
   11R02     H4  215   2.311   1.817   1.883 -1.7102 -0.3243  0.0133
   11R02     C3  216   2.268   1.937   1.564 -0.3677 -0.1611 -0.7835
   11R02     C4  217   2.310   2.071   1.550  0.0096 -0.1383  0.3458
   11R02     H5  218   2.403   2.104   1.595  0.9077 -2.5101  0.3876
   11R02     C5  219   2.237   2.156   1.466 -0.1695  0.2397  0.2450
   11R02     H6  220   2.272   2.257   1.449  2.1203 -0.5001  0.1976
   11R02     C6  221   2.115   2.113   1.413  0.0212 -0.3410 -0.1978
   11R02     H7  222   2.062   2.182   1.348  0.8193 -0.1999 -0.7148
   11R02     C7  223   2.071   1.986   1.433  0.2601  0.0121  0.2064
   11R02     H8  224   1.976   1.961   1.387  1.1230 -1.0722 -1.0815
   11R02     C8  225   2.151   1.893   1.503  0.4414 -0.2056  0.5200
   11R02     H9  226   2.124   1.788   1.506  0.6819 -0.3784 -1.9776
   11R02     CA  227   2.561   1.931   1.761 -0.0672 -0.1833  0.3053
   11R02    H10  228   2.512   2.029   1.774 -1.0514 -0.3057 -2.0369
   11R02    H11  229   2.648   1.970   1.707 -1.2530  0.7791 -0.9707
   11R02      C  230   2.585   1.872   1.901 -0.3018 -0.6105 -1.0842
   11R02      O  231   2.566   1.936   2.002 -0.3470  0.4091  0.1862
   12NH2      N  232   2.631   1.742   1.896 -0.0533 -0.2487  0.2356
   12NH2     H1  233   2.651   1.710   1.803  1.2091 -3.6169  1.5132
   12NH2     H2  234   2.676   1.703   1.978 -1.1516 -0.2459  0.8687
   13UNL     CL  235   3.206   0.780   4.202  0.0287 -0.3880  0.1964
   13UNL      C  236   3.038   0.842   4.215 -0.2360 -0.0253  0.6189
   13UNL    CL1  237   2.973   0.918   4.054 -0.0074  0.7142 -0.2451
   13UNL    CL2  238   2.922   0.719   4.271  0.1296  0.2149 -0.1981
   13UNL      H  239   3.034   0.922   4.289  2.5257 -1.6390  2.6931
   14UNL     CL  240   0.510   1.535   2.740  0.0999  0.4248  0.2460
   14UNL      C  241   0.587   1.372   2.753 -0.3978 -0.2686  0.0258
   14UNL    CL1  242   0.699   1.374   2.898  0.7019 -0.2331 -0.2203
   14UNL    CL2  243   0.469   1.243   2.774 -0.1211  0.3220  0.1139
   14UNL      H  244   0.642   1.355   2.659 -2.1020 -2.1364 -0.7017
   15UNL     CL  245   2.663   1.407   2.049  0.2662  0.1793 -0.3638
   15UNL      C  246   2.562   1.261   2.010 -0.4270 -0.6041 -0.6616
   15UNL    CL1  247   2.399   1.298   2.085  0.2333 -0.1690  0.2067
   15UNL    CL2  248   2.548   1.247   1.829 -0.2724  0.3422  0.6132
   15UNL      H  249   2.605   1.171   2.053  0.8679  0.4109  0.2553
   16UNL     CL  250   1.938   0.919   3.892 -0.4359  0.3221  0.2283
   16UNL      C  251   2.090   1.003   3.821  0.9211 -0.5573 -0.0943
   16UNL    CL1  252   2.070   1.025   3.647 -0.1221  0.3850  0.1357
   16UNL    CL2  253   2.106   1.164   3.908 -0.1624 -0.0956 -0.0823
   16UNL      H  254   2.181   0.944   3.837  0.4740 -1.9577 -2.2542
   17UNL     CL  255   0.396   0.822   1.987  0.0203  0.0871  0.2584
   17UNL      C  256   0.495   0.733   2.111 -0.0336 -0.2212  0.1613
   17UNL    CL1  257   0.435   0.567   2.142  0.1189  0.7473  0.2655
   17UNL    CL2  258   0.669   0.732   2.051 -0.0604  0.1627  0.1300
   17UNL      H  259   0.492   0.786   2.207  0.9382 -1.2512  0.7930
   18UNL     CL  260   0.543   2.248   3.564  0.3503 -0.0099  0.0538
   18UNL      C  261   0.614   2.341   3.436  0.8719 -0.0101 -0.9907
   18UNL    CL1  262   0.634   2.509   3.482 -0.0345 -0.1537  0.0353
   18UNL    CL2  263   0.780   2.282   3.392 -0.0833  0.1072 -0.4815
   18UNL      H  264   0.546   2.333   3.350 -2.7737  2.1275  1.4385
   19UNL     CL  265   1.115   2.867   0.342  0.5028  0.2135 -0.0548
   19UNL      C  266   1.233   2.734   0.336 -0.7433 -0.1295 -0.0681
   19UNL    CL1  267   1.399   2.802   0.379 -0.1389 -0.0278  0.1642
   19UNL    CL2  268   1.190   2.594   0.450 -0.2069 -0.2894 -0.2892
   19UNL      H  269   1.236   2.691   0.235  0.4790 -1.0445  0.3378
   20UNL     CL  270   0.002   3.018   2.703 -0.4069 -0.2532  0.4445
   20UNL      C  271  -0.087   3.148   2.614  0.7090  0.0911 -0.0889
   20UNL    CL1  272  -0.239   3.068   2.543 -0.0064  0.0277  0.0230
   20UNL    CL2  273  -0.135   3.271   2.730 -0.1911 -0.2209  0.1053
   20UNL      H  274  -0.025   3.189   2.533  1.3814 -0.6584  0.0411
   21UNL     CL  275   3.532   1.604   1.902 -0.1403  0.2338 -0.3901
   21UNL      C  276   3.465   1.473   1.796 -0.9660 -0.0372  0.0512
   21UNL    CL1  277   3.306   1.439   1.854  0.1402 -0.0102 -0.3167
   21UNL    CL2  278   3.455   1.543   1.624  0.1443 -0.1525  0.3594
   21UNL      H  279   3.531   1.386   1.785 -0.8588  0.2394 -1.7552
   22UNL     CL  280   1.888   2.073   1.723  0.2236  0.3010  0.3255
   22UNL      C  281   1.989   2.220   1.712 -0.4245  0.1201 -0.5116
   22UNL    CL1  282   1.887   2.356   1.760  0.5205  0.2522  0.3344
   22UNL    CL2  283   2.127   2.223   1.824  0.2116 -0.0804  0.1160
   22UNL      H  284   2.025   2.223   1.609  0.3359 -1.3967 -0.3122
   23UNL     CL  285   2.241   1.330   0.287 -0.1252  0.2965  0.1850
   23UNL      C  286   2.132   1.376   0.153 -0.0817  0.0254 -0.7983
   23UNL    CL1  287   1.979   1.446   0.197 -0.4382  0.0950 -0.0782
   23UNL    CL2  288   2.208   1.504   0.054 -0.1110 -0.0741  0.2440
   23UNL      H  289   2.119   1.291   0.085  0.0456  0.7097 -1.7027
   24UNL     CL  290   1.716   4.007   1.505  0.2018 -0.3535  0.0060
   24UNL      C  291   1.717   4.078   1.669 -0.0179 -0.0627  0.6057
   24UNL    CL1  292   1.810   3.965   1.781  0.2141  0.0714  0.1008
   24UNL    CL2  293   1.780   4.246   1.651 -0.1691 -0.2268 -0.1743
   24UNL      H  294   1.621   4.095   1.719  0.6926 -0.5088  2.1932
   25UNL     CL  295   1.680   2.464   3.908  0.0060 -0.0629 -0.5190
   25UNL      C  296   1.588   2.317   3.955  0.8850 -0.7105  0.0171
   25UNL    CL1  297   1.693   2.204   4.048 -0.2198  0.5415 -0.2792
   25UNL    CL2  298   1.457   2.363   4.076 -0.0420 -0.2600  0.0362
   25UNL      H  299   1.555   2.270   3.862  0.1346 -2.2289  1.0143
   26UNL     CL  300   2.876   0.340   0.334  0.3855  0.1665  0.0166
   26UNL      C  301   3.015   0.336   0.440 -0.6774 -0.3981  0.3509
   26UNL    CL1  302   2.983   0.408   0.601  0.4085 -0.0898  0.2974
   26UNL    CL2  303   3.054   0.171   0.471  0.4315  0.0137 -0.2892
   26UNL      H  304   3.099   0.389   0.394 -0.5018  0.2558  1.3780
   27UNL     CL  305   3.018   1.858   3.470 -0.3720  0.2495 -0.0210
   27UNL      C  306   3.205   1.868   3.438 -0.3631 -0.2191 -0.2124
   27UNL    CL1  307   3.296   1.712   3.469  0.1199 -0.3136 -0.2388
   27UNL    CL2  308   3.248   1.917   3.267  0.3541 -0.4330  0.1936
   27UNL      H  309   3.249   1.947   3.500  0.9124 -2.0048  1.2709
   28UNL     CL  310   1.228   2.826   4.031  0.1248 -0.0268  0.0004
   28UNL      C  311   1.129   2.820   3.887  0.1800  0.4016  0.0685
   28UNL    CL1  312   1.191   2.939   3.758 -0.0746  0.2094 -0.3286
   28UNL    CL2  313   1.120   2.650   3.826  0.0844  0.0292 -0.1723
   28UNL      H  314   1.029   2.849   3.921  0.3229  1.6080 -0.4647
   29UNL     CL  315   2.902   0.996   0.329 -0.0090 -0.3836  0.0990
   29UNL      C  316   2.778   1.000   0.462  0.1297  0.3472 -0.3234
   29UNL    CL1  317   2.620   0.914   0.413 -0.0585  0.4385  0.0211
   29UNL    CL2  318   2.847   0.895   0.587  0.2540  0.0834 -0.5606
   29UNL      H  319   2.760   1.100   0.501 -0.6567  0.1217 -0.0852
   30UNL     CL  320   4.098   2.372   2.701 -0.6677  0.3597 -0.1164
   30UNL      C  321   4.108   2.556   2.687  0.1271 -0.0732  0.4981
   30UNL    CL1  322   4.215   2.615   2.816  0.3039  0.1336  0.3097
   30UNL    CL2  323   4.168   2.599   2.524  0.0812  0.1576 -0.0850
   30UNL      H  324   4.010   2.603   2.699  0.9139  1.8836 -0.3233
   31UNL     CL  325   3.617   2.550   1.811 -0.3425  0.2809  0.8185
   31UNL      C  326   3.736   2.586   1.693 -0.6161  0.2305  0.3651
   31UNL    CL1  327   3.814   2.747   1.728 -0.1297  0.1338 -0.1030
   31UNL    CL2  328   3.856   2.444   1.665  0.0020  0.0795  0.0192
   31UNL      H  329   3.685   2.591   1.596 -0.6499 -1.4225  0.2577
   32UNL     CL  330   1.514   3.691   1.666 -0.2060 -0.4700  0.0121
   32UNL      C  331   1.542   3.538   1.563 -0.7252 -0.5363  0.1663
   32UNL    CL1  332   1.715   3.543   1.516  0.1114  0.0614 -0.6440
   32UNL    CL2  333   1.518   3.385   1.670 -0.3842 -0.1133 -0.0305
   32UNL      H  334   1.474   3.540   1.477  1.6460 -2.3009 -1.9118
   33UNL     CL  335   2.551   2.022   2.769 -0.4462 -0.2290 -0.3512
   33UNL      C  336   2.400   2.038   2.849 -0.0664 -0.1964 -0.1657
   33UNL    CL1  337   2.414   2.047   3.026  0.6269 -0.0217  0.2082
   33UNL    CL2  338   2.312   2.187   2.802  0.2101  0.2380 -0.3107
   33UNL      H  339   2.331   1.955   2.830  1.2535 -1.6079  0.9412
   34UNL     CL  340   1.079   1.631   2.342  0.0521 -0.1720  0.4579
   34UNL      C  341   1.132   1.572   2.182  0.1556 -1.0491  0.3413
   34UNL    CL1  342   1.009   1.466   2.101 -0.0161 -0.4805 -0.2117
   34UNL    CL2  343   1.156   1.710   2.071 -0.1041 -0.0794  0.0218
   34UNL      H  344   1.227   1.518   2.181  0.2927 -0.8057 -0.5758
   35UNL     CL  345   2.264   4.019   2.193  0.1865 -0.7001 -0.1975
   35UNL      C  346   2.111   3.949   2.111 -0.8736 -0.2092 -0.3459
   35UNL    CL1  347   1.968   3.926   2.229 -0.1710  0.2259  0.0699
   35UNL    CL2  348   2.063   4.064   1.976  0.1470 -0.2909 -0.1784
   35UNL      H  349   2.131   3.857   2.056 -1.5235 -0.7109  0.2511
   36UNL     CL  350   3.287   1.338   0.117  0.0830 -0.1268 -0.0113
   36UNL      C  351   3.161   1.461   0.085  0.5183  0.4183  0.0884
   36UNL    CL1  352   3.003   1.394   0.103 -0.5026  0.5133  0.2044
   36UNL    CL2  353   3.181   1.605   0.194  0.2402  0.2192  0.0309
   36UNL      H  354   3.171   1.491  -0.020  0.4063 -0.2254 -0.1083
   37UNL     CL  355   0.127   0.725   2.666 -0.2149 -0.1597 -0.0717
   37UNL      C  356   0.075   0.742   2.839 -0.0134  0.3788 -0.0985
   37UNL    CL1  357   0.152   0.627   2.950 -0.3669  0.3836 -0.1426
   37UNL    CL2  358   0.125   0.905   2.872 -0.2570  0.1079 -0.2385
   37UNL      H  359  -0.033   0.739   2.854  0.0763  2.0292  1.1596
   38UNL     CL  360   0.080   3.224   3.856  0.2270  0.2374  0.4856
   38UNL      C  361   0.211   3.300   3.960 -0.3043 -0.8885  0.9137
   38UNL    CL1  362   0.187   3.478   3.963  0.2723 -0.1064  0.1657
   38UNL    CL2  363   0.207   3.236   4.126 -0.3270  0.1094  0.0036
   38UNL      H  364   0.308   3.269   3.920  0.2348 -0.3606  1.7769
   39UNL     CL  365   0.825   3.582   3.715  0.0327 -0.0348 -0.2334
   39UNL      C  366   0.896   3.502   3.869  0.0807 -0.1509  0.2117
   39UNL    CL1  367   0.941   3.633   3.986 -0.2675 -0.3770  0.2623
   39UNL    CL2  368   0.762   3.410   3.951 -0.1818  0.2277  0.4314
   39UNL      H  369   0.982   3.437   3.850  0.5428  1.1416 -2.5820
   40UNL     CL  370   0.135   2.329   1.592  0.0052  0.7379 -0.1179
   40UNL      C  371  -0.031   2.258   1.602 -0.4144  0.0423  0.2499
   40UNL    CL1  372  -0.102   2.230   1.446  0.0826  0.2381  0.2245
   40UNL    CL2  373  -0.012   2.096   1.676  0.2063  0.2893 -0.1423
   40UNL      H  374  -0.091   2.330   1.660 -1.8198 -0.4722 -0.5060
   41UNL     CL  375   1.024   0.293   3.434  0.0784  0.4867 -0.1570
   41UNL      C  376   1.004   0.347   3.604  0.0531 -0.4241 -0.2062
   41UNL    CL1  377   1.159   0.307   3.705 -0.1962  0.2895  0.1354
   41UNL    CL2  378   0.978   0.520   3.622 -0.3971  0.0269 -0.3270
   41UNL      H  379   0.911   0.305   3.644  0.9429 -0.0520  2.4101
   42UNL     CL  380   3.633   2.152   0.426 -0.1895 -0.1840  0.1711
   42UNL      C  381   3.469   2.216   0.376  0.2455 -0.4065  0.9873
   42UNL    CL1  382   3.346   2.210   0.504  0.3662 -0.0317  0.1077
   42UNL    CL2  383   3.475   2.384   0.309 -0.2196 -0.3851 -0.0380
   42UNL      H  384   3.428   2.153   0.296 -1.1319  0.2520  1.1558
   43UNL     CL  385   1.961   2.483   1.369  0.2599 -0.2457 -0.1515
   43UNL      C  386   1.811   2.424   1.300 -0.0854 -0.4805 -1.0418
   43UNL    CL1  387   1.845   2.335   1.141  0.0118  0.0805 -0.1157
   43UNL    CL2  388   1.741   2.310   1.432 -0.0301 -0.2005 -0.2453
   43UNL      H  389   1.741   2.508   1.296 -1.5614 -1.4651  1.7821
   44UNL     CL  390   1.556   0.968   1.975 -0.1305 -0.0389  0.0310
   44UNL      C  391   1.565   1.146   1.958  0.0805 -0.1646  0.3331
   44UNL    CL1  392   1.559   1.183   1.787 -0.1093  0.0218 -0.3360
   44UNL    CL2  393   1.435   1.217   2.066  0.0583  0.1297  0.0326
   44UNL      H  394   1.666   1.179   1.984  0.7414 -1.8588  0.0304
   45UNL     CL  395   1.042   0.138   4.159 -0.0770 -0.2430  0.0798
   45UNL      C  396   0.955   0.218   4.023  0.0897  0.3845 -0.5042
   45UNL    CL1  397   0.805   0.120   4.003 -0.2366  0.1648  0.4883
   45UNL    CL2  398   0.924   0.384   4.067 -0.2127 -0.0055 -0.0491
   45UNL      H  399   1.009   0.208   3.928 -1.7701 -1.5016 -1.4578
   46UNL     CL  400   0.035   0.727   2.177  0.3868  0.3672 -0.3458
   46UNL      C  401  -0.117   0.731   2.268  0.5158 -0.2627  0.4973
   46UNL    CL1  402  -0.195   0.894   2.280 -0.3373 -0.1425 -0.3784
   46UNL    CL2  403  -0.239   0.613   2.201  0.3701  0.4813 -0.0080
   46UNL      H  404  -0.082   0.701   2.367  0.2176  0.0729  0.7069
   47UNL     CL  405   3.770   3.325   2.003 -0.3180  0.2597 -0.0491
   47UNL      C  406   3.899   3.435   2.075  0.5386  0.3521  0.6018
   47UNL    CL1  407   4.020   3.355   2.196 -0.0348 -0.0238 -0.5174
   47UNL    CL2  408   3.970   3.511   1.934  0.2824  0.2815  0.1410
   47UNL      H  409   3.837   3.507   2.129  0.5542  0.1336  0.9131
   48UNL     CL  410   2.694   0.440   4.164  0.0965 -0.2236 -0.1186
   48UNL      C  411   2.660   0.529   3.999 -0.3760 -0.3642 -0.2819
   48UNL    CL1  412   2.654   0.423   3.853  0.0371 -0.4501  0.0108
   48UNL    CL2  413   2.511   0.608   4.005 -0.3596 -0.2001 -0.0585
   48UNL      H  414   2.736   0.607   3.992  0.6839 -1.3790 -0.4939
   49UNL     CL  415   2.346   0.404   0.571  0.0922  0.4453  0.1613
   49UNL      C  416   2.512   0.365   0.527  0.4800 -0.0646  0.2949
   49UNL    CL1  417   2.621   0.390   0.663  0.0131 -0.4865 -0.3120
   49UNL    CL2  418   2.520   0.192   0.483 -0.1088  0.1440  0.0278
   49UNL      H  419   2.533   0.429   0.441  1.5717 -0.6180  0.1280
   50UNL     CL  420   2.054   0.210   1.886 -0.1760  0.1343 -0.0186
   50UNL      C  421   1.892   0.285   1.844  0.0418 -0.1279  0.1367
   50UNL    CL1  422   1.756   0.217   1.934  0.1656  0.4600 -0.3144
   50UNL    CL2  423   1.894   0.461   1.868  0.1077  0.1682 -0.3497
   50UNL      H  424   1.874   0.273   1.737 -2.4560 -0.8935  0.5842
   51UNL     CL  425   1.847   0.562   0.579  0.1466  0.2290  0.1670
   51UNL      C  426   1.669   0.563   0.594  0.1947 -0.2703 -0.3567
   51UNL    CL1  427   1.627   0.416   0.684 -0.2539 -0.3164 -0.1051
   51UNL    CL2  428   1.595   0.715   0.671 -0.1214 -0.1805 -0.1831
   51UNL      H  429   1.627   0.550   0.494 -0.3509 -1.3950  0.0011
   52UNL     CL  430   0.340   2.825   2.846 -0.2369  0.3086  0.5927
   52UNL      C  431   0.516   2.835   2.789 -0.5004 -0.2113  0.0358
   52UNL    CL1  432   0.575   3.000   2.789 -0.1850 -0.3161  0.0095
   52UNL    CL2  433   0.630   2.737   2.895 -0.0252  0.1245 -0.0167
   52UNL      H  434   0.525   2.792   2.689  0.1228  0.5172 -0.2364
   53UNL     CL  435   1.854   3.779   3.014 -0.0297  0.2328  0.0207
   53UNL      C  436   1.852   3.873   3.167 -0.7160 -0.1618 -0.3421
   53UNL    CL1  437   1.697   3.819   3.242  0.3051 -0.0603 -0.0067
   53UNL    CL2  438   2.007   3.846   3.263  0.1321  0.2505  0.1830
   53UNL      H  439   1.848   3.980   3.143 -0.3166 -0.5393 -2.2656
   54UNL     CL  440   3.166   2.716   2.109 -0.2628 -0.6137 -0.3432
   54UNL      C  441   3.257   2.843   2.025  0.3301 -0.3331 -0.0720
   54UNL    CL1  442   3.173   2.895   1.880 -0.2919  0.6549 -0.2701
   54UNL    CL2  443   3.300   2.983   2.127 -0.2652  0.2031 -0.4199
   54UNL      H  444   3.351   2.795   1.997  0.3589 -0.9993  1.0826
   55UNL     CL  445   2.193   1.660   1.247 -0.0527 -0.3196  0.2097
   55UNL      C  446   2.160   1.569   1.100 -0.0574 -0.1418 -0.4005
   55UNL    CL1  447   1.999   1.600   1.028  0.0032  0.4181  0.0687
   55UNL    CL2  448   2.288   1.583   0.974  0.1118  0.2017 -0.0014
   55UNL      H  449   2.158   1.461   1.119 -2.9310  0.0632  1.0019
   56UNL     CL  450   3.708   3.565   3.566  0.4988 -0.5674  0.1633
   56UNL      C  451   3.785   3.533   3.723 -0.2669 -0.3030  0.4404
   56UNL    CL1  452   3.662   3.481   3.855 -0.1703 -0.5992 -0.0729
   56UNL    CL2  453   3.918   3.413   3.702  0.0792  0.3892  0.0427
   56UNL      H  454   3.823   3.633   3.749  0.9697 -0.3250 -1.1071
   57UNL     CL  455   2.660   1.562   0.611  0.2064 -0.0340  0.5823
   57UNL      C  456   2.581   1.696   0.706 -0.2617 -0.4500 -0.2034
   57UNL    CL1  457   2.684   1.849   0.703  0.0316  0.5544  0.0336
   57UNL    CL2  458   2.414   1.729   0.645 -0.0388  0.0016  0.2506
   57UNL      H  459   2.583   1.665   0.811 -0.6067  1.9192  0.5556
   58UNL     CL  460   3.701   0.658   1.768  0.0819  0.6476  0.0189
   58UNL      C  461   3.604   0.674   1.621  0.0490  0.3302 -0.1171
   58UNL    CL1  462   3.434   0.599   1.638 -0.1775  0.1935  0.1232
   58UNL    CL2  463   3.576   0.845   1.569  0.0438  0.1583 -0.0549
   58UNL      H  464   3.658   0.618   1.544  0.4651 -1.5843  1.4712
   59UNL     CL  465   0.633   0.629   3.828  0.2186  0.1991  0.3055
   59UNL      C  466   0.557   0.542   3.685  0.0085  0.0386  0.8788
   59UNL    CL1  467   0.638   0.391   3.642 -0.1073  0.1257  0.3462
   59UNL    CL2  468   0.381   0.511   3.727  0.1159  0.1952  0.1155
   59UNL      H  469   0.569   0.609   3.600 -0.3485 -0.4607  0.4290
   60UNL     CL  470   0.713   2.011   4.052 -0.3998 -0.1788  0.4065
   60UNL      C  471   0.834   1.883   4.024 -0.0366  0.5544  0.3644
   60UNL    CL1  472   0.809   1.814   3.856  0.2312 -0.1767 -0.0142
   60UNL    CL2  473   0.994   1.969   4.022 -0.2917  0.2240  0.0315
   60UNL      H  474   0.830   1.808   4.104  2.2107  1.1508  1.0976
   61UNL     CL  475   0.645   3.522   1.050 -0.2560 -0.2749  0.0864
   61UNL      C  476   0.600   3.658   1.171  0.3107 -0.8341 -0.3918
   61UNL    CL1  477   0.461   3.756   1.109  0.0570 -0.0830  0.1461
   61UNL    CL2  478   0.552   3.585   1.339  0.2774 -0.2986  0.0942
   61UNL      H  479   0.682   3.730   1.183 -0.8498  0.2829  1.2912
   62UNL     CL  480   2.833   4.128   0.355  0.0962  0.4245  0.1626
   62UNL      C  481   2.789   4.030   0.211  0.1329 -0.0092 -0.6395
   62UNL    CL1  482   2.896   4.058   0.082 -0.3177 -0.0829 -0.2020
   62UNL    CL2  483   2.800   3.852   0.234  0.1764 -0.5250 -0.0901
   62UNL      H  484   2.692   4.063   0.173  0.8443 -0.4201 -3.0054
   63UNL     CL  485   0.487   1.071   1.674  0.4022 -0.3837  0.0108
   63UNL      C  486   0.614   1.086   1.544  0.4977 -0.7433  0.2416
   63UNL    CL1  487   0.575   1.221   1.435 -0.2673 -0.4382 -0.0886
   63UNL    CL2  488   0.768   1.118   1.620  0.0233 -0.2941  0.4091
   63UNL      H  489   0.638   0.995   1.487  2.2286  0.1685 -0.5618
   64UNL     CL  490   3.322   3.839   2.891  0.4813  0.1856  0.0405
   64UNL      C  491   3.206   3.799   3.015  0.1334 -0.2598  0.4197
   64UNL    CL1  492   3.109   3.656   2.965 -0.0618 -0.3532 -0.2330
   64UNL    CL2  493   3.285   3.763   3.175 -0.1461  0.4315 -0.3866
   64UNL      H  494   3.140   3.886   3.024  0.4623  0.3594 -2.2081
   65UNL     CL  495   1.454   2.353   0.758  0.0583  0.1231  0.0791
   65UNL      C  496   1.403   2.339   0.934  0.5109  0.6530  0.2315
   65UNL    CL1  497   1.519   2.429   1.036 -0.1245  0.1162 -0.1973
   65UNL    CL2  498   1.241   2.409   0.959  0.0532 -0.3916 -0.2603
   65UNL      H  499   1.405   2.231   0.955  0.2431  0.0291 -2.5113
   66UNL     CL  500   0.935   3.602   2.426 -0.2635  0.0718  0.4458
   66UNL      C  501   0.978   3.516   2.275  1.1577 -0.3392  0.8458
   66UNL    CL1  502   0.961   3.625   2.125 -0.1581  0.2923 -0.5454
   66UNL    CL2  503   1.146   3.444   2.288 -0.2379 -0.0825  0.2242
   66UNL      H  504   0.909   3.431   2.269  1.7364 -0.8693  1.5621
   67UNL     CL  505   2.080   2.745   1.058  0.1069 -0.1135  0.0395
   67UNL      C  506   2.121   2.675   0.896 -0.0877  0.3837  0.2804
   67UNL    CL1  507   2.014   2.755   0.774  0.2631 -0.0746 -0.1853
   67UNL    CL2  508   2.290   2.705   0.852 -0.0567  0.3268 -0.1833
   67UNL      H  509   2.109   2.567   0.887  0.2517  0.3739 -0.1115
   68UNL     CL  510   3.961   3.052   2.998  0.1601  0.3518 -0.1538
   68UNL      C  511   3.912   2.878   2.977  0.5956 -0.0049  0.6879
   68UNL    CL1  512   3.770   2.842   3.085  0.4660  0.0156  0.4626
   68UNL    CL2  513   3.862   2.853   2.805  0.2419  0.1430 -0.0007
   68UNL      H  514   3.993   2.809   3.004  0.7901  0.7236  2.0747
   69UNL     CL  515   3.874   3.275   0.738 -0.2995  0.4420  0.0037
   69UNL      C  516   3.858   3.433   0.814 -0.9170  0.0298  0.5490
   69UNL    CL1  517   3.709   3.427   0.917  0.2791 -0.1978 -0.0420
   69UNL    CL2  518   3.988   3.468   0.933 -0.4865  0.1133 -0.5112
   69UNL      H  519   3.853   3.504   0.731 -0.5498 -1.1161 -0.4960
   70UNL     CL  520   4.172   3.596   3.099  0.1223 -0.1000 -0.1372
   70UNL      C  521   4.238   3.760   3.117 -0.3316  0.1645  0.5973
   70UNL    CL1  522   4.148   3.879   3.027  0.2104 -0.2527 -0.0721
   70UNL    CL2  523   4.266   3.814   3.280 -0.2310 -0.5466 -0.3998
   70UNL      H  524   4.337   3.760   3.068 -0.4167  0.0203  0.4238
   71UNL     CL  525   2.263   3.090   0.712 -0.0467  0.0562 -0.2484
   71UNL      C  526   2.155   3.221   0.715  0.6330 -0.1380 -0.2458
   71UNL    CL1  527   2.040   3.209   0.854 -0.5534 -0.0009 -0.0112
   71UNL    CL2  528   2.248   3.381   0.713  0.2398  0.3442  0.0561
   71UNL      H  529   2.097   3.217   0.622  0.2640 -3.3750  0.0116
   72UNL     CL  530   2.213   1.290   3.323 -0.1670 -0.3076  0.2534
   72UNL      C  531   2.374   1.188   3.303 -0.7397  0.1711  0.2543
   72UNL    CL1  532   2.375   1.059   3.419  0.2432 -0.0998  0.1303
   72UNL    CL2  533   2.367   1.114   3.130 -0.2204  0.2354 -0.5795
   72UNL      H  534   2.467   1.245   3.306 -0.9030  0.4532  0.0592
   73UNL     CL  535   3.186   2.072   2.560 -0.2109  0.3648 -0.1534
   73UNL      C  536   3.154   1.998   2.394  0.0713  0.1750  0.4940
   73UNL    CL1  537   2.983   1.938   2.385 -0.2364  0.3535 -0.1948
   73UNL    CL2  538   3.179   2.112   2.264 -0.0415  0.2353 -0.5063
   73UNL      H  539   3.218   1.910   2.380  0.9534  0.9545 -0.5955
   74UNL     CL  540   1.278   3.916   1.508 -0.1946 -0.3624 -0.0415
   74UNL      C  541   1.318   3.849   1.346  0.2678  0.5470  0.2719
   74UNL    CL1  542   1.492   3.811   1.332 -0.1659 -0.2635  0.4651
   74UNL    CL2  543   1.218   3.715   1.309  0.2392  0.0338 -0.1070
   74UNL      H  544   1.297   3.925   1.270  0.7746  0.1399 -0.2804
   75UNL     CL  545   0.391   1.387   1.207 -0.2854  0.3803  0.0992
   75UNL      C  546   0.231   1.309   1.177 -0.1598  0.5783 -0.0193
   75UNL    CL1  547   0.164   1.239   1.328  0.1027 -0.5043  0.2291
   75UNL    CL2  548   0.112   1.430   1.110  0.5658 -0.4527 -0.0015
   75UNL      H  549   0.247   1.228   1.105  3.8341  0.3368  0.9221
   76UNL     CL  550   0.491   0.933   3.665 -0.0097 -0.0445 -0.0289
   76UNL      C  551   0.659   0.953   3.717  0.0521 -0.0090  0.1511
   76UNL    CL1  552   0.771   0.939   3.578 -0.0795  0.3664  0.5242
   76UNL    CL2  553   0.683   1.114   3.787  0.0595  0.1908  0.3296
   76UNL      H  554   0.679   0.879   3.795 -3.8682 -2.1545 -0.6246
   77UNL     CL  555   1.511   2.182   2.503 -0.1593 -0.0584 -0.1562
   77UNL      C  556   1.636   2.231   2.389 -0.0983 -0.1651  0.5490
   77UNL    CL1  557   1.794   2.254   2.478 -0.6014  0.1680 -0.3625
   77UNL    CL2  558   1.658   2.115   2.254 -0.1748  0.6044  0.4108
   77UNL      H  559   1.598   2.325   2.348  2.6867  0.6813 -0.3089
   78UNL     CL  560   1.525   0.585   0.187  0.1156 -0.5866  0.4047
   78UNL      C  561   1.625   0.443   0.213  0.8270 -0.1983 -0.2639
   78UNL    CL1  562   1.559   0.309   0.107 -0.3109  0.2354  0.0379
   78UNL    CL2  563   1.784   0.481   0.169  0.0722  0.1823 -0.2274
   78UNL      H  564   1.607   0.402   0.313  0.2813 -2.8134 -1.3403
   79UNL     CL  565   1.002   1.485   1.504 -0.0931 -0.3876 -0.4490
   79UNL      C  566   0.891   1.402   1.401  0.3110 -0.0625 -0.2263
   79UNL    CL1  567   0.869   1.496   1.260 -0.1020  0.3416 -0.0127
   79UNL    CL2  568   0.963   1.240   1.369  0.0463  0.4331  0.2099
   79UNL      H  569   0.798   1.390   1.458  0.0454  0.0293 -0.6302
   80UNL     CL  570   3.777   3.453   2.984  0.3326 -0.0912  0.1723
   80UNL      C  571   3.645   3.537   3.062  0.0105 -0.1018  0.0939
   80UNL    CL1  572   3.697   3.713   3.091  0.2809 -0.2576 -0.3214
   80UNL    CL2  573   3.500   3.512   2.956  0.1286 -0.0242  0.0833
   80UNL      H  574   3.626   3.491   3.159 -1.8390 -1.6567 -0.9368
   81UNL     CL  575   4.028   0.985   0.745  0.2274 -0.4379  0.4352
   81UNL      C  576   3.918   1.069   0.622  0.0231 -0.3795  0.3953
   81UNL    CL1  577   3.752   1.011   0.651 -0.1862  0.2362  0.0455
   81UNL    CL2  578   3.929   1.249   0.651 -0.0442  0.0845  0.3130
   81UNL      H  579   3.942   1.029   0.523  0.0324  1.2227 -0.2756
   82UNL     CL  580   2.021   3.165   2.291  0.1708 -0.1524 -0.1979
   82UNL      C  581   2.164   3.214   2.193 -0.4863  0.4875  0.2190
   82UNL    CL1  582   2.290   3.314   2.282 -0.3826 -0.1306 -0.4307
   82UNL    CL2  583   2.245   3.079   2.116 -0.0412  0.1631 -0.1231
   82UNL      H  584   2.124   3.275   2.112  0.5253 -0.5996 -1.1582
   83UNL     CL  585   1.682   3.114   1.544 -0.1224 -0.1555  0.1348
   83UNL      C  586   1.862   3.155   1.507 -0.5420  0.3127  0.4287
   83UNL    CL1  587   1.878   3.207   1.336  0.3645  0.1233 -0.0811
   83UNL    CL2  588   1.899   3.290   1.609  0.1075 -0.2629 -0.4896
   83UNL      H  589   1.926   3.068   1.525 -2.0751 -1.4881 -2.0981
   84UNL     CL  590   2.978   1.588   1.908  0.4112  0.3556 -0.3043
   84UNL      C  591   2.935   1.479   1.770 -0.2421  0.5008 -0.8149
   84UNL    CL1  592   3.018   1.506   1.622  0.0487  0.2548 -0.0599
   84UNL    CL2  593   2.957   1.303   1.816  0.3292  0.1302  0.3909
   84UNL      H  594   2.828   1.487   1.752 -0.5861 -1.2225  0.1714
   85UNL     CL  595   2.901   0.119   1.261 -0.0184  0.3102  0.4562
   85UNL      C  596   2.936   0.129   1.433 -0.0281  0.1818  0.3405
   85UNL    CL1  597   2.840   0.257   1.517  0.1750  0.2449  0.2816
   85UNL    CL2  598   2.901  -0.025   1.523  0.2341 -0.0351  0.0060
   85UNL      H  599   3.040   0.163   1.442 -0.6497  2.7607 -1.2209
   86UNL     CL  600   2.739   3.836   1.050  0.1494  0.0570  0.6149
   86UNL      C  601   2.609   3.846   1.169  0.0103  0.9679 -0.2495
   86UNL    CL1  602   2.513   3.697   1.151  0.0069 -0.0212 -0.0976
   86UNL    CL2  603   2.676   3.864   1.330 -0.2192  0.0559  0.3111
   86UNL      H  604   2.551   3.936   1.150  1.8635  1.9727 -1.3542
   87UNL     CL  605   1.301   4.010   1.826  0.1868  0.0980  0.1388
   87UNL      C  606   1.193   3.904   1.919  0.0774 -0.7149 -0.3258
   87UNL    CL1  607   1.205   3.739   1.840  0.2489 -0.2132 -0.0913
   87UNL    CL2  608   1.256   3.889   2.087 -0.3087  0.0981 -0.1647
   87UNL      H  609   1.089   3.939   1.922  0.6857  1.1477  1.2504
   88UNL     CL  610   2.607   2.801   0.421 -0.4635 -0.2936 -0.4709
   88UNL      C  611   2.655   2.971   0.471  0.4343  0.2947 -0.1750
   88UNL    CL1  612   2.788   2.963   0.597  0.3570 -0.0793  0.1782
   88UNL    CL2  613   2.726   3.051   0.331 -0.0385 -0.0834 -0.0940
   88UNL      H  614   2.570   3.028   0.511 -0.2534 -0.3838 -0.6279
   89UNL     CL  615   2.096   1.755   0.760  0.1972 -0.3007 -0.3199
   89UNL      C  616   2.019   1.742   0.602 -0.0088 -0.5472  0.1107
   89UNL    CL1  617   2.046   1.896   0.500 -0.0711  0.3044 -0.2928
   89UNL    CL2  618   2.094   1.599   0.519 -0.1009 -0.1527 -0.0816
   89UNL      H  619   1.913   1.731   0.626 -0.1043  1.4151  0.8025
   90UNL     CL  620   3.141   1.397   0.616  0.2633 -0.0350 -0.1794
   90UNL      C  621   2.959   1.409   0.596  0.1170  0.0590 -0.1916
   90UNL    CL1  622   2.906   1.397   0.422 -0.0891 -0.2020  0.0562
   90UNL    CL2  623   2.887   1.273   0.691  0.1473  0.4898  0.0393
   90UNL      H  624   2.919   1.502   0.637 -0.1001 -0.4663  0.8313
   91UNL     CL  625   1.510   1.096   1.412 -0.3444  0.2190 -0.1768
   91UNL      C  626   1.367   1.195   1.376  0.5464 -0.6908  0.2422
   91UNL    CL1  627   1.413   1.374   1.369 -0.1500 -0.1207  0.2426
   91UNL    CL2  628   1.302   1.150   1.214  0.3629 -0.1358  0.2333
   91UNL      H  629   1.291   1.181   1.454 -0.4651  0.9691 -0.3704
   92UNL     CL  630   1.112   1.254   4.111  0.0329 -0.2240  0.5579
   92UNL      C  631   0.991   1.389   4.134 -0.0583 -0.0591  0.4670
   92UNL    CL1  632   1.018   1.496   4.286  0.0678  0.5220  0.3078
   92UNL    CL2  633   0.980   1.484   3.992 -0.2017 -0.1371 -0.4597
   92UNL      H  634   0.888   1.354   4.151  0.4364 -1.0470  1.6663
   93UNL     CL  635   1.235   1.431   1.019 -0.1957 -0.4565  0.1858
   93UNL      C  636   1.274   1.611   1.023 -0.0820  0.1213 -0.1160
   93UNL    CL1  637   1.424   1.653   1.108  0.0844  0.0531  0.2699
   93UNL    CL2  638   1.290   1.680   0.860  0.2001 -0.0252  0.2166
   93UNL      H  639   1.191   1.662   1.074 -0.5433 -1.1219  0.4329
   94UNL     CL  640   1.581   1.941   3.211  0.4364  0.4081 -0.0514
   94UNL      C  641   1.581   1.778   3.120 -0.3128 -0.1111 -0.1729
   94UNL    CL1  642   1.449   1.658   3.184 -0.1186  0.6275  0.2044
   94UNL    CL2  643   1.550   1.802   2.945  0.1333  0.1261 -0.2327
   94UNL      H  644   1.675   1.722   3.129 -0.6994 -0.4087  3.8450
   95UNL     CL  645   3.173   0.481   3.455  0.2706 -0.1816  0.1414
   95UNL      C  646   3.126   0.424   3.612 -0.0403 -0.1382 -0.4760
   95UNL    CL1  647   3.287   0.393   3.699 -0.0868 -0.2119  0.1290
   95UNL    CL2  648   3.033   0.543   3.711  0.2301  0.1703 -0.2636
   95UNL      H  649   3.077   0.327   3.601  0.6146 -0.4635 -0.5854
   96UNL     CL  650   4.102   0.071   1.399 -0.2734 -0.1503  0.3989
   96UNL      C  651   3.920   0.079   1.413 -0.3919 -0.2856  0.3062
   96UNL    CL1  652   3.854  -0.090   1.414  0.0881  0.0007  0.0609
   96UNL    CL2  653   3.867   0.175   1.564 -0.2555 -0.0183  0.2577
   96UNL      H  654   3.874   0.121   1.323  0.7093 -1.7329 -1.0007
   97UNL     CL  655   1.188   0.766   3.849  0.3830  0.3596 -0.1153
   97UNL      C  656   1.184   0.679   4.014 -0.4821  0.3158 -0.4882
   97UNL    CL1  657   1.338   0.574   4.032  0.3880  0.1850  0.3204
   97UNL    CL2  658   1.184   0.803   4.148  0.0447 -0.0684 -0.5716
   97UNL      H  659   1.100   0.608   4.016  0.1266 -0.4113 -0.1763
   98UNL     CL  660   1.709   3.358   2.912 -0.3444 -0.1249  0.0382
   98UNL      C  661   1.634   3.433   2.766  0.0553  0.3870 -0.7275
   98UNL    CL1  662   1.454   3.457   2.812 -0.2384 -0.4060 -0.2170
   98UNL    CL2  663   1.706   3.601   2.738 -0.0016 -0.1724 -0.1255
   98UNL      H  664   1.637   3.368   2.679 -0.9891 -1.1443  0.3236
   99UNL     CL  665   0.770   1.644   0.331  0.2060 -0.2189 -0.1365
   99UNL      C  666   0.713   1.766   0.464 -0.2216 -0.4497  0.5866
   99UNL    CL1  667   0.735   1.923   0.396  0.0290  0.5538  0.3749
   99UNL    CL2  668   0.536   1.734   0.492  0.0652 -0.1728  0.1940
   99UNL      H  669   0.776   1.753   0.553 -2.2010 -1.1929  1.9633
  100UNL     CL  670   2.444   2.692   1.272  0.1512  0.0176  0.0265
  100UNL      C  671   2.371   2.843   1.335 -0.2117  1.1927 -0.0867
  100UNL    CL1  672   2.413   2.974   1.231  0.0627  0.4800  0.0648
  100UNL    CL2  673   2.187   2.825   1.370 -0.1140 -0.0691 -0.6467
  100UNL      H  674   2.418   2.868   1.431  2.0463  0.5817 -0.9686
  101UNL     CL  675   0.689   2.824   0.717  0.1583  0.1183  0.0088
  101UNL      C  676   0.707   2.722   0.565  0.3463 -0.3035  0.7228
  101UNL    CL1  677   0.542   2.707   0.501 -0.5040  0.1093 -0.0780
  101UNL    CL2  678   0.813   2.803   0.439 -0.2409 -0.0473  0.1072
  101UNL      H  679   0.751   2.624   0.588  1.5576  0.0055 -0.1835
  102UNL     CL  680   3.854   0.961   2.562  0.5207  0.5124 -0.1260
  102UNL      C  681   3.889   1.052   2.708  0.1832 -0.7043 -1.3830
  102UNL    CL1  682   4.027   0.971   2.803  0.1232  0.0084 -0.4845
  102UNL    CL2  683   3.932   1.222   2.684  0.1652  0.1273 -0.2730
  102UNL      H  684   3.807   1.050   2.780 -1.9231 -0.2910 -3.6174
  103UNL     CL  685   4.207   1.636   4.092 -0.1255  0.3667  0.2011
  103UNL      C  686   4.129   1.566   4.230 -0.4425 -0.3070  0.3245
  103UNL    CL1  687   4.179   1.646   4.391 -0.0407 -0.3181 -0.2571
  103UNL    CL2  688   3.951   1.560   4.207 -0.3646  0.1019 -0.2728
  103UNL      H  689   4.167   1.463   4.226  0.6701  0.1221 -0.4752
  104UNL     CL  690   1.105   1.930   1.549 -0.0848 -0.0981 -0.5667
  104UNL      C  691   1.165   1.829   1.414 -0.4237  0.4774  0.1148
  104UNL    CL1  692   1.040   1.796   1.302  0.2581 -0.3197 -0.3396
  104UNL    CL2  693   1.304   1.896   1.329  0.4808  0.0034 -0.0034
  104UNL      H  694   1.200   1.736   1.460  1.1745  0.5151 -0.9624
  105UNL     CL  695   3.714   2.203   1.422  0.1619  0.3055 -0.4336
  105UNL      C  696   3.635   2.297   1.307 -0.6344 -0.3350  0.2529
  105UNL    CL1  697   3.554   2.195   1.190 -0.0129  0.0474  0.7604
  105UNL    CL2  698   3.518   2.413   1.367  0.1467  0.0078  0.1000
  105UNL      H  699   3.715   2.351   1.254  0.2180 -0.9640  0.8696
  106UNL     CL  700   1.374   2.315   3.281 -0.1567  0.2618  0.0257
  106UNL      C  701   1.492   2.438   3.338 -0.5646  0.1858  0.4758
  106UNL    CL1  702   1.632   2.378   3.436  0.6305 -0.0925  0.0061
  106UNL    CL2  703   1.564   2.516   3.193  0.1199  0.1313  0.3074
  106UNL      H  704   1.434   2.511   3.395 -1.8397  0.0997 -0.6642
  107UNL     CL  705   2.473   3.238   1.856 -0.4071  0.3465 -0.5030
  107UNL      C  706   2.605   3.177   1.754 -0.1172 -0.4100  0.1289
  107UNL    CL1  707   2.546   3.047   1.641  0.1216 -0.1683  0.2040
  107UNL    CL2  708   2.667   3.312   1.663 -0.1721  0.4255  0.0574
  107UNL      H  709   2.683   3.129   1.813  0.2990 -0.4466 -0.4429
  108UNL     CL  710   3.537   2.390   4.122  0.0872  0.5727 -0.0114
  108UNL      C  711   3.433   2.491   4.003 -0.1000  0.5730  0.1048
  108UNL    CL1  712   3.470   2.427   3.840 -0.3866  0.3240  0.0104
  108UNL    CL2  713   3.260   2.454   4.037  0.3097 -0.1137  0.0292
  108UNL      H  714   3.460   2.595   4.021  2.2898  0.2449 -1.1475
  109UNL     CL  715   3.420   3.597   0.457 -0.2647 -0.0716 -0.1172
  109UNL      C  716   3.355   3.504   0.599 -0.1412  0.6626  0.2015
  109UNL    CL1  717   3.244   3.601   0.693 -0.1027  0.1243 -0.2693
  109UNL    CL2  718   3.261   3.369   0.540  0.1777  0.0859 -0.3107
  109UNL      H  719   3.422   3.467   0.677  1.7031  2.1705 -0.6053
  110UNL     CL  720   1.317   1.508   3.678 -0.1866  0.0523  0.3438
  110UNL      C  721   1.278   1.672   3.723 -0.4242 -0.1814 -0.1857
  110UNL    CL1  722   1.110   1.718   3.682  0.0398 -0.1548 -0.2763
  110UNL    CL2  723   1.280   1.679   3.897  0.5099  0.3879 -0.3168
  110UNL      H  724   1.356   1.738   3.684  0.8818 -1.1481  0.7081
  111UNL     CL  725   2.426   0.385   3.033 -0.3846 -0.0888  0.3964
  111UNL      C  726   2.295   0.316   2.933  0.1869 -0.7055  0.5923
  111UNL    CL1  727   2.350   0.281   2.757 -0.3278 -0.0602 -0.2082
  111UNL    CL2  728   2.214   0.171   3.010  0.1037  0.1766  0.0148
  111UNL      H  729   2.214   0.389   2.927  0.2034 -0.5879  1.5997
  112UNL     CL  730   3.759   3.676   2.628 -0.0356 -0.4389  0.1737
  112UNL      C  731   3.775   3.833   2.707 -0.0807  0.2294  0.5685
  112UNL    CL1  732   3.904   3.922   2.616 -0.2033 -0.2461 -0.2355
  112UNL    CL2  733   3.619   3.920   2.699 -0.0974 -0.1183 -0.0963
  112UNL      H  734   3.804   3.828   2.812  0.8785  0.4372  0.3297
  113UNL     CL  735   2.444   4.060   0.934  0.5025  0.1888  0.2714
  113UNL      C  736   2.429   4.228   0.868  0.5842 -0.4730 -0.3347
  113UNL    CL1  737   2.282   4.234   0.755  0.2209  0.0575 -0.5440
  113UNL    CL2  738   2.401   4.348   1.004 -0.1430  0.2970  0.2736
  113UNL      H  739   2.517   4.259   0.810  0.5298  1.5374  0.5624
  114UNL     CL  740   2.148   0.845   1.922  0.4430  0.1556 -0.0488
  114UNL      C  741   2.317   0.897   1.890  0.0946 -0.7666 -0.0713
  114UNL    CL1  742   2.342   0.992   1.742 -0.4078  0.0148  0.4109
  114UNL    CL2  743   2.388   0.973   2.042 -0.0571 -0.3906  0.0038
  114UNL      H  744   2.372   0.803   1.880  1.4135 -0.3541  2.4225
  115UNL     CL  745   2.260   2.463   0.260  0.1325 -0.4467  0.0833
  115UNL      C  746   2.283   2.284   0.225 -0.2648 -0.8554  0.1081
  115UNL    CL1  747   2.154   2.193   0.305  0.0800  0.2659  0.2082
  115UNL    CL2  748   2.288   2.267   0.047  0.4449  0.2453 -0.1372
  115UNL      H  749   2.376   2.262   0.279 -0.9738 -1.1179  1.2715
  116UNL     CL  750   2.959   4.189   3.166  0.3698  0.7890 -0.0894
  116UNL      C  751   2.885   4.116   3.017 -0.3851  1.1522  0.9809
  116UNL    CL1  752   2.984   4.151   2.873  0.2254 -0.4760  0.3502
  116UNL    CL2  753   2.872   3.935   3.032 -0.3498  0.3821 -0.0926
  116UNL      H  754   2.785   4.159   3.005 -1.4859 -1.5425 -0.5830
  117UNL     CL  755   3.436   0.878   3.061 -0.5127 -0.3481  0.3680
  117UNL      C  756   3.513   0.716   3.039 -0.2128 -0.1146  0.1764
  117UNL    CL1  757   3.653   0.730   2.931  0.2087  0.2644 -0.1838
  117UNL    CL2  758   3.581   0.668   3.200  0.5316 -0.0091  0.0042
  117UNL      H  759   3.439   0.646   2.999 -1.1891  0.6839  0.5155
  118UNL     CL  760   0.552   4.090   0.211 -0.2092 -0.0447 -0.1413
  118UNL      C  761   0.513   3.943   0.114 -0.4431 -0.0961  0.2958
  118UNL    CL1  762   0.664   3.863   0.061  0.9143  0.1742  0.0882
  118UNL    CL2  763   0.416   3.827   0.216 -0.1861 -0.1833 -0.0789
  118UNL      H  764   0.455   3.971   0.026 -0.3613 -2.1331 -0.4514
  119UNL     CL  765   2.915   0.644   2.725  0.2671  0.0921  0.0536
  119UNL      C  766   2.926   0.704   2.566  0.3854  0.3070  0.4292
  119UNL    CL1  767   2.837   0.858   2.554 -0.1875 -0.0412  0.1511
  119UNL    CL2  768   3.098   0.722   2.512 -0.2018  0.0499  0.3630
  119UNL      H  769   2.875   0.637   2.495  0.1265  0.5543  0.3779
  120UNL     CL  770   0.732   2.449   0.817 -0.3792 -0.2918 -0.0413
  120UNL      C  771   0.749   2.314   0.693 -0.6013 -0.2677  0.2220
  120UNL    CL1  772   0.696   2.369   0.537 -0.0977  0.1567 -0.2045
  120UNL    CL2  773   0.922   2.280   0.679  0.1691 -0.2786  0.2476
  120UNL      H  774   0.695   2.224   0.724  0.6610 -0.9495  0.4615
  121UNL     CL  775   3.724   0.710   1.043 -0.0363 -0.6475 -0.5530
  121UNL      C  776   3.820   0.588   0.967  0.7563 -0.1389 -0.1032
  121UNL    CL1  777   3.966   0.654   0.881  0.2350 -0.5737 -0.0393
  121UNL    CL2  778   3.850   0.485   1.101 -0.3602  0.1576  0.2070
  121UNL      H  779   3.756   0.540   0.893 -1.0314 -2.4530  2.7318
  122UNL     CL  780   2.699   2.769   2.445 -0.1100  0.2014  0.3943
  122UNL      C  781   2.556   2.758   2.339  0.0508  0.0866 -0.7071
  122UNL    CL1  782   2.431   2.878   2.399  0.1852  0.3771  0.0865
  122UNL    CL2  783   2.597   2.801   2.171  0.1339 -0.2732  0.0533
  122UNL      H  784   2.522   2.654   2.334 -2.9739  0.9058  0.6117
  123UNL     CL  785   1.185   3.231   1.527  0.0767 -0.0222 -0.3875
  123UNL      C  786   1.018   3.292   1.511  1.2100 -0.0889 -0.2322
  123UNL    CL1  787   1.005   3.441   1.616  0.2362 -0.0741 -0.4753
  123UNL    CL2  788   0.992   3.339   1.340 -0.3377  0.7047  0.8878
  123UNL      H  789   0.951   3.212   1.543  1.8431 -0.1701  0.9429
  124UNL     CL  790   1.828   1.645   2.080 -0.2343  0.0514 -0.1284
  124UNL      C  791   1.809   1.832   2.087 -0.1277  0.8787  0.0989
  124UNL    CL1  792   1.965   1.908   2.012 -0.3300  0.0528  0.2928
  124UNL    CL2  793   1.664   1.889   1.991 -0.3987  0.0867  0.4032
  124UNL      H  794   1.802   1.864   2.192 -2.5349 -2.4026  1.0849
  125UNL     CL  795   0.371   0.497   1.355  0.1999 -0.2565  0.2338
  125UNL      C  796   0.453   0.347   1.350  0.0526 -0.0146 -0.4726
  125UNL    CL1  797   0.619   0.390   1.317  0.0938 -0.3828  0.0588
  125UNL    CL2  798   0.435   0.244   1.502 -0.3623  0.0264 -0.0746
  125UNL      H  799   0.429   0.281   1.266  0.5705  1.9701 -2.2376
  126UNL     CL  800   3.672   1.556   3.917 -0.0060  0.1159 -0.0335
  126UNL      C  801   3.740   1.508   3.761 -1.0690 -0.2515  0.6780
  126UNL    CL1  802   3.703   1.332   3.733  0.2187 -0.1128  0.0140
  126UNL    CL2  803   3.673   1.614   3.625 -0.1641 -0.1118  0.4365
  126UNL      H  804   3.848   1.525   3.767 -1.1424  1.5350 -1.6625
  127UNL     CL  805   2.066   3.586   1.787  0.1882 -0.1014  0.0608
  127UNL      C  806   2.199   3.472   1.810  0.2630  0.1257 -0.0549
  127UNL    CL1  807   2.288   3.530   1.965  0.0191 -0.0070 -0.3980
  127UNL    CL2  808   2.134   3.300   1.833 -0.6756  0.1475 -0.0110
  127UNL      H  809   2.271   3.482   1.728  1.4691  0.9684  1.0464
  128UNL     CL  810   0.975   1.090   1.043 -0.1386 -0.2122 -0.2055
  128UNL      C  811   0.820   1.056   1.130 -0.0415 -0.3637 -0.6797
  128UNL    CL1  812   0.716   1.199   1.109  0.5496 -0.0089  0.1102
  128UNL    CL2  813   0.733   0.914   1.066  0.0618 -0.1294 -0.0059
  128UNL      H  814   0.841   1.050   1.237 -2.0078  0.0575 -0.2303
  129UNL     CL  815   3.296   1.552   3.052 -0.1255 -0.4528 -0.3412
  129UNL      C  816   3.117   1.533   3.044 -0.3083 -0.3426  0.5061
  129UNL    CL1  817   3.086   1.438   3.192  0.0511 -0.1517  0.3430
  129UNL    CL2  818   3.031   1.697   3.051 -0.1798 -0.0027 -0.0105
  129UNL      H  819   3.092   1.476   2.954  1.5211 -0.7034  0.1856
  130UNL     CL  820   2.171   0.234   2.479 -0.0810 -0.0014 -0.0027
  130UNL      C  821   2.186   0.097   2.359  0.4195 -0.7169 -0.3606
  130UNL    CL1  822   2.020   0.045   2.297  0.2604 -0.3162 -0.1606
  130UNL    CL2  823   2.295   0.139   2.229 -0.0643  0.1150 -0.0542
  130UNL      H  824   2.220   0.011   2.418  2.2140 -1.8385 -2.8527
  131UNL     CL  825   1.331   3.010   3.087 -0.1170  0.2142  0.4039
  131UNL      C  826   1.436   2.965   2.944  0.2038  0.3793  0.4899
  131UNL    CL1  827   1.577   3.072   2.930 -0.1711  0.0225  0.5036
  131UNL    CL2  828   1.494   2.795   2.963 -0.5234 -0.1675 -0.3138
  131UNL      H  829   1.372   2.977   2.855  2.9998  2.3118 -1.4369
  132UNL     CL  830   3.314   3.476   0.056  0.4833 -0.7107 -0.1064
  132UNL      C  831   3.223   3.553  -0.080 -0.2724 -0.1984 -0.8801
  132UNL    CL1  832   3.143   3.697  -0.012  0.1663 -0.1905 -0.2721
  132UNL    CL2  833   3.346   3.585  -0.204 -0.2437 -0.3042  0.3091
  132UNL      H  834   3.144   3.493  -0.127 -1.5160  2.8007 -2.9555
  133UNL     CL  835   3.406   0.983   0.244 -0.1893  0.1402 -0.0087
  133UNL      C  836   3.367   1.063   0.397 -0.6936 -0.0431  0.1466
  133UNL    CL1  837   3.192   1.106   0.402  0.0382 -0.2410  0.3677
  133UNL    CL2  838   3.421   0.955   0.535  0.3743  0.0659  0.1774
  133UNL      H  839   3.430   1.153   0.401  0.3659 -0.7738  0.1385
  134UNL     CL  840   1.221   0.985   0.383  0.5346 -0.1298  0.0721
  134UNL      C  841   1.392   0.985   0.314 -0.2099 -0.4361  0.1068
  134UNL    CL1  842   1.445   1.164   0.306  0.1174 -0.1013 -0.0894
  134UNL    CL2  843   1.488   0.894   0.430 -0.1534  0.1751 -0.2108
  134UNL      H  844   1.397   0.943   0.213 -2.7026  0.7782 -0.5986
  135UNL     CL  845   1.955   1.776   0.127 -0.3508 -0.0043  0.0070
  135UNL      C  846   1.863   1.911   0.047  0.4695 -0.4925  0.4851
  135UNL    CL1  847   1.882   2.062   0.134  0.0303  0.0523 -0.3464
  135UNL    CL2  848   1.929   1.929  -0.115 -0.0869 -0.1030 -0.0673
  135UNL      H  849   1.760   1.879   0.029  0.2155  1.0686 -1.2046
  136UNL     CL  850   0.989   2.874   1.593  0.5152  0.3931 -0.3714
  136UNL      C  851   0.946   2.727   1.699  0.3609  0.7110  0.3450
  136UNL    CL1  852   1.086   2.699   1.808  0.0369 -0.4097 -0.2049
  136UNL    CL2  853   0.801   2.754   1.790 -0.2115 -0.3575 -0.3564
  136UNL      H  854   0.936   2.636   1.639  0.9944  1.0400 -0.2873
  137UNL     CL  855   1.339   0.216   0.826 -0.0721  0.0607  0.0662
  137UNL      C  856   1.333   0.147   0.659  0.3826 -0.6000 -0.7504
  137UNL    CL1  857   1.383   0.264   0.542  0.4565 -0.3752  0.2623
  137UNL    CL2  858   1.441   0.018   0.636 -0.0097  0.0793 -0.1266
  137UNL      H  859   1.233   0.111   0.633 -1.2192  0.9094  2.7284
  138UNL     CL  860   0.100   0.248   1.590  0.1679 -0.1139 -0.4162
  138UNL      C  861   0.064   0.271   1.756  0.0419 -0.6413 -0.0285
  138UNL    CL1  862   0.212   0.327   1.844  0.1135 -0.3366  0.1579
  138UNL    CL2  863  -0.072   0.404   1.756 -0.4588 -0.2795 -0.1162
  138UNL      H  864   0.035   0.175   1.800  0.8877 -0.2281  1.5076
  139UNL     CL  865   2.728   1.203   0.101  0.2685 -0.4696 -0.1597
  139UNL      C  866   2.639   1.361   0.072  0.1145  0.1980  0.3869
  139UNL    CL1  867   2.478   1.307  -0.005 -0.1940  0.5079 -0.3516
  139UNL    CL2  868   2.618   1.460   0.223  0.0982 -0.1996  0.3084
  139UNL      H  869   2.700   1.422   0.004  0.1048  0.9842  1.0623
  140UNL     CL  870   3.510   0.588   3.894 -0.0994 -0.3121 -0.4176
  140UNL      C  871   3.615   0.512   4.013  0.3068 -0.4872 -0.3647
  140UNL    CL1  872   3.624   0.630   4.146  0.6674  0.3576 -0.6686
  140UNL    CL2  873   3.549   0.350   4.049 -0.0847  0.1481 -0.1971
  140UNL      H  874   3.709   0.498   3.960 -0.8337  0.3190 -2.7507
  141UNL     CL  875   2.266   1.238   2.862  0.2049  0.4120  0.1361
  141UNL      C  876   2.079   1.239   2.890 -0.5432 -0.6712  0.2538
  141UNL    CL1  877   1.973   1.171   2.759  0.2106 -0.1078 -0.2148
  141UNL    CL2  878   2.052   1.152   3.047  0.1754 -0.4227  0.2578
  141UNL      H  879   2.041   1.340   2.905  0.9306 -0.0740  0.1755
  142UNL     CL  880   0.146   1.300   3.632 -0.0436 -0.2529 -0.4492
  142UNL      C  881  -0.030   1.315   3.667 -0.2424 -0.4497  1.2928
  142UNL    CL1  882  -0.119   1.160   3.620 -0.1683 -0.1948  0.4529
  142UNL    CL2  883  -0.070   1.370   3.831 -0.0507  0.1491  0.0529
  142UNL      H  884  -0.060   1.389   3.593  1.3768 -0.0059  1.0647
  143UNL     CL  885   3.154   1.755   0.521 -0.3651 -0.1870 -0.1230
  143UNL      C  886   3.160   1.922   0.452  0.6507 -0.1370  0.9000
  143UNL    CL1  887   3.251   1.922   0.300 -0.2972 -0.2941  0.1360
  143UNL    CL2  888   2.991   1.985   0.434 -0.4757  0.3837  0.2424
  143UNL      H  889   3.212   1.992   0.517  1.8039 -0.1293  0.0055
  144UNL     CL  890   2.961   0.914   2.179 -0.0031 -0.2219 -0.4141
  144UNL      C  891   2.946   1.088   2.229  0.1129 -0.5719  0.0645
  144UNL    CL1  892   2.785   1.150   2.273  0.7285  0.6388  0.1674
  144UNL    CL2  893   3.055   1.111   2.368  0.2517 -0.0008 -0.3015
  144UNL      H  894   2.989   1.149   2.149  1.7836  0.0861  1.3998
  145UNL     CL  895   3.126   0.259   2.996  0.3933 -0.0525  0.1236
  145UNL      C  896   3.011   0.403   2.962  0.3621  0.1218 -0.2570
  145UNL    CL1  897   2.855   0.360   3.054  0.0987 -0.0420  0.2739
  145UNL    CL2  898   3.066   0.555   3.027  0.4551  0.4111 -0.0434
  145UNL      H  899   2.987   0.407   2.855  0.3278 -1.0868 -0.3110
  146UNL     CL  900   3.377   1.432   2.311 -0.2698 -0.0692  0.0362
  146UNL      C  901   3.475   1.279   2.275  0.0591 -0.1976 -0.1904
  146UNL    CL1  902   3.501   1.198   2.432  0.0135 -0.0509 -0.1170
  146UNL    CL2  903   3.403   1.167   2.151 -0.3020 -0.0458 -0.4048
  146UNL      H  904   3.574   1.312   2.241 -0.2049  1.9541  0.9481
  147UNL     CL  905   4.203   0.707   1.437  0.4097  0.5732 -0.1746
  147UNL      C  906   4.080   0.623   1.343  0.3181  0.0278 -0.1466
  147UNL    CL1  907   4.115   0.447   1.364 -0.2993  0.3801  0.0281
  147UNL    CL2  908   3.915   0.666   1.398  0.2188 -0.0425 -0.2454
  147UNL      H  909   4.095   0.644   1.237  0.9147 -1.8795 -0.4629
  148UNL     CL  910   2.030   2.803   4.005  0.0086 -0.1524  0.2495
  148UNL      C  911   2.020   2.630   4.053  0.2542 -0.2807  0.0752
  148UNL    CL1  912   2.155   2.539   3.982 -0.0407 -0.1748  0.2190
  148UNL    CL2  913   2.028   2.638   4.230  0.0249  0.7584 -0.1650
  148UNL      H  914   1.924   2.594   4.015  1.6260 -2.3074 -1.7248
  149UNL     CL  915   1.463   0.031   2.063  0.0742 -0.0047 -0.1758
  149UNL      C  916   1.559  -0.047   2.205 -0.3277  0.2947 -0.0073
  149UNL    CL1  917   1.716  -0.100   2.147 -0.5796  0.2514  0.0470
  149UNL    CL2  918   1.573   0.063   2.346 -0.3184  0.3169  0.0988
  149UNL      H  919   1.506  -0.140   2.229  2.4010 -0.6581  2.9735
  150UNL     CL  920   2.348   3.184   2.676 -0.4699 -0.1320 -0.0425
  150UNL      C  921   2.282   3.200   2.846  0.1227 -1.8263 -0.2134
  150UNL    CL1  922   2.420   3.253   2.955 -0.3462 -0.2578 -0.0441
  150UNL    CL2  923   2.150   3.321   2.840  0.2754 -0.0129 -0.1050
  150UNL      H  924   2.236   3.105   2.877 -0.8577 -1.5381 -0.7524
  151UNL     CL  925   0.029   4.161   0.431 -0.0912  0.5568 -0.1386
  151UNL      C  926  -0.026   4.327   0.361  0.1298 -0.2863  0.5800
  151UNL    CL1  927  -0.052   4.315   0.180  0.2437 -0.4581 -0.0973
  151UNL    CL2  928  -0.181   4.379   0.429 -0.1389 -0.2957 -0.1349
  151UNL      H  929   0.049   4.400   0.395 -1.7611  2.0280  0.0497
  152UNL     CL  930   3.310   0.955   3.893 -0.1143  0.3699 -0.2615
  152UNL      C  931   3.240   1.102   3.957 -0.2783 -0.9152  0.1510
  152UNL    CL1  932   3.366   1.226   4.014 -0.1699  0.1550  0.1871
  152UNL    CL2  933   3.123   1.176   3.843 -0.3635  0.1924 -0.0092
  152UNL      H  934   3.184   1.082   4.049 -3.1518 -0.0339 -1.2868
  153UNL     CL  935   3.473   1.791   2.546  0.2255 -0.2146 -0.1019
  153UNL      C  936   3.558   1.906   2.439 -0.1983 -0.0604 -0.0195
  153UNL    CL1  937   3.730   1.869   2.421  0.0159  0.3173  0.1750
  153UNL    CL2  938   3.488   1.918   2.270  0.0877  0.1731 -0.0827
  153UNL      H  939   3.543   2.004   2.486 -0.5774 -0.3632  0.5023
  154UNL     CL  940   3.230   4.005   2.276  0.1190 -0.2978 -0.0863
  154UNL      C  941   3.211   4.017   2.451  0.1675  0.4243 -0.1857
  154UNL    CL1  942   3.026   4.025   2.474 -0.0716 -0.5362  0.2489
  154UNL    CL2  943   3.278   3.866   2.536  0.2375 -0.1333  0.1504
  154UNL      H  944   3.258   4.103   2.499 -0.7527  0.3711  0.8578
  155UNL     CL  945   3.356   3.833   1.589  0.1014  0.0481  0.0100
  155UNL      C  946   3.219   3.827   1.710 -0.4302 -0.0618 -0.1424
  155UNL    CL1  947   3.078   3.797   1.621  0.5014 -0.1925 -0.2767
  155UNL    CL2  948   3.245   3.700   1.836 -0.3763  0.2592 -0.5682
  155UNL      H  949   3.216   3.924   1.760 -1.3100 -1.0289  1.7993
  156UNL     CL  950   0.915   2.615   1.334 -0.0457  0.0413 -0.4871
  156UNL      C  951   0.794   2.560   1.210 -0.2563  0.4741 -0.3238
  156UNL    CL1  952   0.762   2.701   1.090  0.0270 -0.1659 -0.1255
  156UNL    CL2  953   0.869   2.422   1.110 -0.4527  0.1443  0.0352
  156UNL      H  954   0.703   2.525   1.260 -0.1289  1.1417  0.3915
  157UNL     CL  955   0.198   2.345   3.022 -0.1710 -0.2435 -0.1938
  157UNL      C  956   0.304   2.483   3.015 -0.3037  0.3330  0.1162
  157UNL    CL1  957   0.437   2.480   3.136 -0.3334 -0.0412  0.4804
  157UNL    CL2  958   0.398   2.480   2.866  0.2762  0.5095  0.0799
  157UNL      H  959   0.261   2.584   3.020 -0.6555  0.3178 -1.9411
  158UNL     CL  960   3.899   2.814   1.026  0.1475  0.2316 -0.3166
  158UNL      C  961   3.790   2.697   1.112  0.0930  0.2183  0.3345
  158UNL    CL1  962   3.838   2.519   1.073  0.3596 -0.0465 -0.1298
  158UNL    CL2  963   3.809   2.727   1.287 -0.2841 -0.0072 -0.1368
  158UNL      H  964   3.687   2.719   1.085  0.4487  1.1799 -0.2861
  159UNL     CL  965   2.488   0.874   1.086 -0.2006  0.2028  0.0792
  159UNL      C  966   2.626   0.868   0.977  0.2250 -0.3360  0.1896
  159UNL    CL1  967   2.568   0.805   0.817 -0.1697  0.5910 -0.0932
  159UNL    CL2  968   2.691   1.032   0.932  0.4918 -0.2524  0.0926
  159UNL      H  969   2.700   0.799   1.018 -0.6147 -1.0578  0.5354
  160UNL     CL  970   3.699   1.475   1.159  0.0781  0.0185 -0.0442
  160UNL      C  971   3.686   1.329   1.044  0.8420 -0.0245 -0.1413
  160UNL    CL1  972   3.847   1.275   1.001  0.0490 -0.3675  0.5138
  160UNL    CL2  973   3.576   1.193   1.105  0.1549 -0.1476  0.0949
  160UNL      H  974   3.633   1.361   0.953 -0.8403 -2.3938 -0.0799
  161UNL     CL  975   0.615   4.071   1.740  0.2218  0.9151 -0.1381
  161UNL      C  976   0.461   3.988   1.743  0.2573 -0.6341 -0.3448
  161UNL    CL1  977   0.365   4.049   1.610 -0.0429  0.3960 -0.0699
  161UNL    CL2  978   0.501   3.816   1.712  0.1358  0.0723  0.3139
  161UNL      H  979   0.408   4.007   1.837  1.2455  0.2070  0.0755
  162UNL     CL  980   0.424   1.667   3.894 -0.0002 -0.1771  0.3112
  162UNL      C  981   0.488   1.498   3.864 -0.0316  0.8062 -0.2937
  162UNL    CL1  982   0.588   1.501   3.709 -0.1215 -0.0292  0.1924
  162UNL    CL2  983   0.588   1.460   4.005 -0.3494  0.5781  0.0593
  162UNL      H  984   0.414   1.418   3.851 -0.1691  0.8309  0.2849
  163UNL     CL  985   1.896   0.125   0.068 -0.0533 -0.1117  0.1830
  163UNL      C  986   1.871   0.034  -0.082  0.0290 -1.1496 -0.5392
  163UNL    CL1  987   2.025  -0.027  -0.161 -0.1767 -0.2240  0.1543
  163UNL    CL2  988   1.766  -0.110  -0.036  0.1340  0.2677  0.0470
  163UNL      H  989   1.816   0.091  -0.157  1.1687 -0.1597 -0.6552
  164UNL     CL  990   0.834   4.182   2.375 -0.2137  0.2873  0.0662
  164UNL      C  991   0.960   4.054   2.349 -0.1310 -0.6082  1.0811
  164UNL    CL1  992   0.980   3.960   2.498  0.1729 -0.2258 -0.4992
  164UNL    CL2  993   0.921   3.956   2.200 -0.1872 -0.1141  0.2812
  164UNL      H  994   1.055   4.104   2.326 -0.1501 -1.1786 -0.3337
  165UNL     CL  995   0.826   0.847   0.739 -0.2839 -0.1230  0.1560
  165UNL      C  996   0.884   1.019   0.694 -0.7129  0.6063  0.3810
  165UNL    CL1  997   0.913   1.018   0.510  0.1464  0.0629  0.2680
  165UNL    CL2  998   0.762   1.142   0.734 -0.5137  0.0716 -0.3849
  165UNL      H  999   0.979   1.047   0.742 -1.7420  0.9408  2.3247
  166UNL     CL 1000   3.014   3.656   1.175 -0.6027 -0.1175  0.1592
  166UNL      C 1001   2.885   3.529   1.217  1.1392 -0.0987  0.1060
  166UNL    CL1 1002   2.912   3.396   1.107  0.0588  0.2395 -0.1769
  166UNL    CL2 1003   2.891   3.476   1.387 -0.2479  0.0859  0.4233
  166UNL      H 1004   2.793   3.587   1.203 -0.0470 -1.6764  1.0008
  167UNL     CL 1005   1.901   2.000   1.039  0.1771  0.4671 -0.5381
  167UNL      C 1006   1.768   1.886   1.082 -0.1026 -0.2156  0.2903
  167UNL    CL1 1007   1.630   1.990   1.142 -0.0971  0.0733 -0.1635
  167UNL    CL2 1008   1.716   1.797   0.935 -0.0726 -0.2049 -0.2573
  167UNL      H 1009   1.810   1.821   1.159  1.6147  0.3280 -0.1236
  168UNL     CL 1010   0.151   0.734   3.374 -0.5805 -0.3421 -0.2421
  168UNL      C 1011   0.120   0.893   3.300  0.5545 -0.0028  0.5015
  168UNL    CL1 1012  -0.050   0.916   3.219  0.2903  0.2224  0.0749
  168UNL    CL2 1013   0.139   1.006   3.439 -0.2645 -0.2840  0.2315
  168UNL      H 1014   0.193   0.916   3.222 -1.0988 -0.6114 -1.3048
  169UNL     CL 1015   2.145   2.969   0.117 -0.2299  0.1011  0.1659
  169UNL      C 1016   2.189   2.941   0.279  0.7086  0.2892  0.0959
  169UNL    CL1 1017   2.240   3.091   0.371 -0.0404  0.0727 -0.0068
  169UNL    CL2 1018   2.052   2.850   0.363  0.1646 -0.0559  0.0444
  169UNL      H 1019   2.272   2.870   0.285 -1.5139 -2.6541 -1.0178
  170UNL     CL 1020   0.332   2.535   0.846  0.5344 -0.1819 -0.0791
  170UNL      C 1021   0.323   2.554   1.020 -0.3800  0.4472 -0.6879
  170UNL    CL1 1022   0.404   2.423   1.104 -0.1070 -0.1694  0.0990
  170UNL    CL2 1023   0.401   2.704   1.075 -0.0083 -0.4736 -0.0276
  170UNL      H 1024   0.218   2.551   1.051 -0.6484 -2.6180 -1.6022
  171UNL     CL 1025   2.241   3.613   3.076 -0.1030  0.1248 -0.1116
  171UNL      C 1026   2.223   3.670   2.912 -0.0759  0.5969 -0.1141
  171UNL    CL1 1027   2.230   3.857   2.895 -0.0626 -0.3315  0.1148
  171UNL    CL2 1028   2.351   3.596   2.806  0.0226  0.3276  0.1579
  171UNL      H 1029   2.128   3.640   2.866  1.1573 -0.2729 -2.2423
  172UNL     CL 1030   2.149   2.102   0.795  0.6377  0.2941  0.5242
  172UNL      C 1031   2.283   2.216   0.785  0.0778  0.0823 -0.2972
  172UNL    CL1 1032   2.390   2.176   0.652  0.2912  0.2698 -0.3984
  172UNL    CL2 1033   2.216   2.376   0.753  0.2786  0.3449  0.1177
  172UNL      H 1034   2.335   2.224   0.881 -0.0452 -1.0189 -0.1235
  173UNL     CL 1035   0.573   2.878   2.090  0.4718  0.3765  0.0550
  173UNL      C 1036   0.561   2.710   2.131 -0.8384 -1.2984 -0.2912
  173UNL    CL1 1037   0.466   2.675   2.276  0.1100 -0.0434  0.1722
  173UNL    CL2 1038   0.503   2.635   1.986 -0.0461 -0.4100  0.1077
  173UNL      H 1039   0.665   2.677   2.142 -0.3214  0.4899  0.6419
  174UNL     CL 1040   2.843   3.659   2.215  0.1333  0.4217  0.0764
  174UNL      C 1041   2.670   3.669   2.147 -0.5112 -0.2694 -0.4957
  174UNL    CL1 1042   2.644   3.540   2.009  0.0414  0.0757  0.1662
  174UNL    CL2 1043   2.538   3.643   2.269  0.0581  0.1422  0.4748
  174UNL      H 1044   2.659   3.771   2.108 -0.5199 -0.2463 -0.4318
  175UNL     CL 1045   3.640   0.426   2.346 -0.0771  0.6619  0.4407
  175UNL      C 1046   3.667   0.581   2.449 -1.1386 -0.0889  0.1845
  175UNL    CL1 1047   3.532   0.603   2.571  0.3773 -0.6403  0.3778
  175UNL    CL2 1048   3.826   0.579   2.532 -0.0506  0.1196  0.2105
  175UNL      H 1049   3.667   0.669   2.384  0.9475  1.1099  1.6933
  176UNL     CL 1050   0.989   3.298   1.949 -0.0943  0.2573 -0.1170
  176UNL      C 1051   1.174   3.273   1.949 -0.5163  0.0956  0.8159
  176UNL    CL1 1052   1.261   3.430   1.986 -0.2367  0.2560  0.1764
  176UNL    CL2 1053   1.216   3.160   2.080  0.3730 -0.1292  0.8229
  176UNL      H 1054   1.214   3.234   1.855 -1.5053  0.4635  0.2380
  177UNL     CL 1055   1.089   1.844   0.548 -0.0653  0.1447 -0.1154
  177UNL      C 1056   1.169   1.988   0.625 -0.2307  0.3514  0.2081
  177UNL    CL1 1057   1.342   1.950   0.684 -0.0773 -0.1859  0.1067
  177UNL    CL2 1058   1.167   2.133   0.502  0.0347  0.0841 -0.0648
  177UNL      H 1059   1.110   2.016   0.714  1.4349  1.4075  1.0253
  178UNL     CL 1060   3.138   0.070   3.547 -0.2740  0.1680 -0.1319
  178UNL      C 1061   3.237   0.043   3.403 -0.2165 -1.3549  0.4822
  178UNL    CL1 1062   3.305   0.204   3.350 -0.3625  0.3072 -0.2526
  178UNL    CL2 1063   3.367  -0.064   3.431 -0.3017  0.0557 -0.4031
  178UNL      H 1064   3.175  -0.003   3.325 -0.1456 -0.9010  0.1491
  179UNL     CL 1065   1.225   0.083   2.475  0.1703  0.0383 -0.3620
  179UNL      C 1066   1.288   0.250   2.458  0.6471 -0.2841  0.3141
  179UNL    CL1 1067   1.165   0.370   2.506  0.3499  0.2119  0.3637
  179UNL    CL2 1068   1.432   0.289   2.563 -0.2956 -0.1817  0.1922
  179UNL      H 1069   1.316   0.250   2.352 -1.7600 -0.1116 -0.3761
  180UNL     CL 1070   3.428   3.922   0.695 -0.0797  0.4131 -0.1876
  180UNL      C 1071   3.403   4.060   0.809 -0.5956 -0.0876 -0.4671
  180UNL    CL1 1072   3.547   4.077   0.922  0.0178  0.3397  0.0660
  180UNL    CL2 1073   3.383   4.215   0.721  0.1589 -0.0818  0.4604
  180UNL      H 1074   3.309   4.055   0.865 -1.1635  1.7606 -1.1989
  181UNL     CL 1075   3.699   2.110   2.957  0.4588  0.2546  0.2583
  181UNL      C 1076   3.560   2.020   3.016 -0.7492  0.5924 -0.7914
  181UNL    CL1 1077   3.417   2.079   2.945  0.2870 -0.1207  0.0048
  181UNL    CL2 1078   3.586   1.842   2.971 -0.2642 -0.4100 -0.1516
  181UNL      H 1079   3.542   2.017   3.124 -3.4814 -1.7310 -1.1682
  182UNL     CL 1080   0.607   2.505   2.514  0.0475  0.1010  0.2609
  182UNL      C 1081   0.734   2.546   2.635  1.0096  0.0700  0.2955
  182UNL    CL1 1082   0.858   2.421   2.634 -0.5044 -0.5173  0.2988
  182UNL    CL2 1083   0.799   2.707   2.597  0.2055  0.3644 -0.1203
  182UNL      H 1084   0.697   2.555   2.738 -0.3811  0.5611 -0.2194
  183UNL     CL 1085   3.453   0.751   1.286  0.3715  0.3777  0.6768
  183UNL      C 1086   3.348   0.888   1.214 -0.0211 -0.0190 -0.2088
  183UNL    CL1 1087   3.184   0.837   1.149  0.4709 -0.2836 -0.3520
  183UNL    CL2 1088   3.333   1.003   1.355 -0.1162 -0.2218  0.2771
  183UNL      H 1089   3.411   0.936   1.139  0.7466 -0.3170  0.2312
  184UNL     CL 1090   1.537   4.093   2.793 -0.0491 -0.1281  0.0002
  184UNL      C 1091   1.426   4.202   2.870  0.6017  0.0275  0.4587
  184UNL    CL1 1092   1.399   4.149   3.043  0.1503  0.3059 -0.2146
  184UNL    CL2 1093   1.483   4.374   2.868  0.3387  0.1170  0.2760
  184UNL      H 1094   1.335   4.188   2.811  0.5648  0.9805  0.2762
  185UNL     CL 1095   2.838   3.052   2.972  0.3199  0.2151  0.2866
  185UNL      C 1096   2.925   3.062   2.814 -0.4846 -0.0621  0.4458
  185UNL    CL1 1097   2.973   3.229   2.769  0.0026  0.2956 -0.4489
  185UNL    CL2 1098   3.080   2.967   2.837 -0.3759  0.3302  0.5200
  185UNL      H 1099   2.862   3.012   2.740  0.4191  0.8680 -0.9773
  186UNL     CL 1100   1.237   1.094   0.793  0.1199  0.0934  0.0467
  186UNL      C 1101   1.403   1.113   0.862 -0.0278 -0.4846 -0.3981
  186UNL    CL1 1102   1.471   0.950   0.894  0.0511 -0.0576 -0.0973
  186UNL    CL2 1103   1.520   1.191   0.750  0.1483  0.0550  0.0948
  186UNL      H 1104   1.394   1.175   0.952 -0.6976  1.4759 -1.7525
  187UNL     CL 1105   1.773   3.500   0.631 -0.1905  0.2673  0.2945
  187UNL      C 1106   1.893   3.598   0.527  0.4682 -0.4454 -0.0256
  187UNL    CL1 1107   1.994   3.718   0.625  0.2722 -0.1776  0.4765
  187UNL    CL2 1108   2.001   3.487   0.459 -0.1091  0.3370 -0.3656
  187UNL      H 1109   1.838   3.640   0.442  0.3105 -1.0367 -0.2220
  188UNL     CL 1110   0.508   3.326   1.864 -0.2161  0.3832  0.2859
  188UNL      C 1111   0.565   3.162   1.805  0.3855 -0.0264 -0.1850
  188UNL    CL1 1112   0.617   3.174   1.626 -0.2299  0.4962  0.1369
  188UNL    CL2 1113   0.711   3.109   1.906  0.0904 -0.0024 -0.2402
  188UNL      H 1114   0.484   3.088   1.801  1.4903 -1.4805  2.2162
  189UNL     CL 1115   3.421   2.705   1.162 -0.4560 -0.0425 -0.3337
  189UNL      C 1116   3.254   2.727   1.237 -0.2617  0.9887  0.2833
  189UNL    CL1 1117   3.208   2.564   1.273  0.0755  0.0088  0.1139
  189UNL    CL2 1118   3.281   2.835   1.373  0.0656  0.2022 -0.3005
  189UNL      H 1119   3.189   2.776   1.164  0.7353  0.7773 -0.7687
  190UNL     CL 1120   3.751   2.729   2.127 -0.6582 -0.2041  0.3096
  190UNL      C 1121   3.812   2.831   2.259  0.3629  0.2721  0.0774
  190UNL    CL1 1122   3.994   2.805   2.265 -0.0614 -0.2138  0.0069
  190UNL    CL2 1123   3.764   3.007   2.227  0.2278 -0.0915  0.1955
  190UNL      H 1124   3.767   2.795   2.353 -0.8722 -2.3241 -1.3958
  191UNL     CL 1125   4.080   2.654   4.187  0.0678  0.1264  0.1052
  191UNL      C 1126   3.928   2.683   4.295  0.0252  0.7700  0.4062
  191UNL    CL1 1127   3.883   2.530   4.388 -0.3850 -0.3197  0.2721
  191UNL    CL2 1128   3.955   2.826   4.397  0.0766 -0.1244  0.4795
  191UNL      H 1129   3.845   2.711   4.229  0.1262  0.2338  0.0432
  192UNL     CL 1130   0.482   0.032   3.437  0.1165 -0.2228  0.2163
  192UNL      C 1131   0.416  -0.088   3.309  0.1505 -0.2828 -0.4102
  192UNL    CL1 1132   0.544  -0.153   3.201 -0.1830  0.6119 -0.1663
  192UNL    CL2 1133   0.334  -0.225   3.396  0.4609 -0.3372  0.2515
  192UNL      H 1134   0.336  -0.027   3.265 -0.6542 -0.3281  0.9183
  193UNL     CL 1135   0.869   1.995   0.890 -0.1722 -0.0354 -0.1631
  193UNL      C 1136   0.877   2.070   1.051 -0.5824 -0.4914  0.1920
  193UNL    CL1 1137   0.777   1.972   1.168 -0.0497 -0.2576  0.3682
  193UNL    CL2 1138   1.041   2.089   1.117 -0.1158 -0.0484  0.1026
  193UNL      H 1139   0.834   2.170   1.048 -0.1083 -0.2681  0.8216
  194UNL     CL 1140   1.475   1.216   3.881 -0.1909  0.1080 -0.0708
  194UNL      C 1141   1.558   1.078   3.948 -0.8735 -0.1032 -0.0397
  194UNL    CL1 1142   1.688   1.130   4.058  0.0018  0.2058 -0.1682
  194UNL    CL2 1143   1.441   0.993   4.047 -0.0157 -0.2257 -0.1322
  194UNL      H 1144   1.599   1.012   3.871 -1.1187 -1.3908  0.9064
  195UNL     CL 1145   2.741   2.203   0.742  0.0203 -0.2690 -0.1508
  195UNL      C 1146   2.784   2.263   0.571  0.5154  0.0007 -0.4644
  195UNL    CL1 1147   2.669   2.401   0.529  0.1905  0.5049 -0.4035
  195UNL    CL2 1148   2.955   2.322   0.560  0.1893 -0.1728 -0.0671
  195UNL      H 1149   2.773   2.179   0.502  2.3057 -0.4311 -0.2608
  196UNL     CL 1150   3.318   4.177   3.910  0.0137  0.4989 -0.1086
  196UNL      C 1151   3.318   4.026   4.020  0.8427  0.1378  0.7541
  196UNL    CL1 1152   3.473   3.956   3.995  0.1309  0.1648  0.5230
  196UNL    CL2 1153   3.323   4.069   4.193 -0.1033  0.2309 -0.0547
  196UNL      H 1154   3.234   3.958   4.000  0.5388  1.0865 -1.4578
  197UNL     CL 1155   0.322   0.083   0.046  0.4946 -0.1199 -0.0378
  197UNL      C 1156   0.420   0.231   0.039  0.8743  0.3331  0.0227
  197UNL    CL1 1157   0.342   0.333  -0.079  0.1558 -0.1022  0.3410
  197UNL    CL2 1158   0.435   0.310   0.200  0.0189 -0.2353  0.2061
  197UNL      H 1159   0.514   0.195  -0.005  0.5026  0.7470 -1.1604
  198UNL     CL 1160   0.843   0.060   3.656 -0.1345 -0.1102 -0.1877
  198UNL      C 1161   0.908  -0.104   3.683 -0.9564 -0.3253 -0.0111
  198UNL    CL1 1162   0.908  -0.158   3.854 -0.2694  0.3348 -0.3276
  198UNL    CL2 1163   0.817  -0.221   3.578 -0.0878  0.0279  0.2195
  198UNL      H 1164   1.013  -0.096   3.653 -1.0939  2.4924 -0.0466
  199UNL     CL 1165   2.371   1.764   2.271 -0.1539  0.4514 -0.2975
  199UNL      C 1166   2.548   1.731   2.308  0.0800  0.6895 -0.2486
  199UNL    CL1 1167   2.582   1.847   2.436 -0.3436 -0.0044  0.3041
  199UNL    CL2 1168   2.571   1.578   2.396  0.3341  0.2272 -0.4313
  199UNL      H 1169   2.601   1.743   2.213  0.7410  1.6147  0.2135
  200UNL     CL 1170   0.701   0.550   1.711 -0.0071  0.3086 -0.4400
  200UNL      C 1171   0.636   0.715   1.705 -0.3644  0.5273 -0.2602
  200UNL    CL1 1172   0.783   0.818   1.673  0.0492  0.0973  0.1818
  200UNL    CL2 1173   0.524   0.731   1.573 -0.6705  0.0413  0.4277
  200UNL      H 1174   0.590   0.747   1.799  1.8405  0.5461  0.8769
  201UNL     CL 1175   3.138   3.800   0.374 -0.3484  0.0787 -0.0378
  201UNL      C 1176   3.231   3.954   0.338 -0.0483  0.0501  0.1250
  201UNL    CL1 1177   3.189   4.060   0.472  0.1620 -0.2275 -0.0698
  201UNL    CL2 1178   3.404   3.919   0.316  0.3062 -0.0737  0.4457
  201UNL      H 1179   3.191   4.002   0.248  0.2918  1.6207  0.7741
  202UNL     CL 1180   1.850   4.024   2.634  0.2062 -0.3433 -0.0762
  202UNL      C 1181   1.980   4.059   2.754  0.0890  0.3438 -0.5365
  202UNL    CL1 1182   2.115   4.155   2.680  0.3017  0.3739  0.0211
  202UNL    CL2 1183   1.922   4.147   2.896  0.1805  0.1849 -0.2250
  202UNL      H 1184   2.021   3.965   2.794 -2.8838 -0.8114  0.1343
  203UNL     CL 1185   0.308   1.539   3.258  0.1466 -0.0079  0.0332
  203UNL      C 1186   0.480   1.585   3.270  0.5342 -0.2062 -0.3387
  203UNL    CL1 1187   0.579   1.437   3.252  0.2001 -0.1333  0.7415
  203UNL    CL2 1188   0.522   1.709   3.154 -0.6641  0.2811  0.0868
  203UNL      H 1189   0.502   1.630   3.367  1.1008  1.1512 -1.0578
  204UNL     CL 1190   2.616   0.331   2.175  0.2896  0.1996  0.0997
  204UNL      C 1191   2.698   0.484   2.115 -0.0481 -0.0128  0.3911
  204UNL    CL1 1192   2.666   0.626   2.210 -0.0338 -0.4652  0.4520
  204UNL    CL2 1193   2.881   0.460   2.098  0.0651  0.0391 -0.1262
  204UNL      H 1194   2.670   0.492   2.009  3.5658 -0.3592 -0.7245
  205UNL     CL 1195   2.806   0.966   1.340  0.1006 -0.0838  0.2487
  205UNL      C 1196   2.701   1.066   1.443 -0.1590  0.1591  0.9557
  205UNL    CL1 1197   2.576   0.967   1.518 -0.1257 -0.1342 -0.0449
  205UNL    CL2 1198   2.792   1.160   1.565 -0.2207 -0.1142  0.2765
  205UNL      H 1199   2.653   1.141   1.379 -2.8532 -2.9720 -0.9586
  206UNL     CL 1200   0.398   0.371   3.166 -0.0940 -0.2129 -0.2440
  206UNL      C 1201   0.470   0.425   3.008  0.7502  0.5554  0.3752
  206UNL    CL1 1202   0.648   0.388   2.996  0.3042 -0.0920  0.3555
  206UNL    CL2 1203   0.379   0.352   2.865 -0.2915 -0.1578  0.1258
  206UNL      H 1204   0.462   0.534   3.011  0.7339  0.5834 -0.4756
  207UNL     CL 1205   3.008   1.532   2.326  0.0294  0.6340 -0.0999
  207UNL      C 1206   3.082   1.554   2.502 -0.8162 -0.0239  0.4167
  207UNL    CL1 1207   2.980   1.658   2.604  0.1790 -0.1719  0.7437
  207UNL    CL2 1208   3.116   1.393   2.574 -0.2231 -0.1353 -0.1669
  207UNL      H 1209   3.175   1.605   2.478 -1.9342  1.2502 -1.5504
  208UNL     CL 1210   1.557   0.225   1.341 -0.1148 -0.3873  0.3540
  208UNL      C 1211   1.521   0.051   1.321  0.3207 -0.9167 -0.2788
  208UNL    CL1 1212   1.439  -0.014   1.474  0.1506 -0.1115  0.0153
  208UNL    CL2 1213   1.407   0.030   1.174 -0.0528 -0.2390 -0.4428
  208UNL      H 1214   1.614  -0.004   1.303  0.7940  0.2887 -1.7206
  209UNL     CL 1215   3.960   0.124   2.424 -0.1718 -0.1856  0.2685
  209UNL      C 1216   3.978   0.135   2.249  0.2204 -0.2227  0.0064
  209UNL    CL1 1217   3.825   0.175   2.155 -0.3821  0.2506 -0.4123
  209UNL    CL2 1218   4.092   0.275   2.215  0.0730  0.0861  0.3683
  209UNL      H 1219   4.021   0.039   2.216 -0.7381  0.1633 -2.5957
  210UNL     CL 1220   0.797   0.418   1.033 -0.0298  0.2919 -0.0822
  210UNL      C 1221   0.701   0.481   0.892  0.4749 -0.9315 -0.0779
  210UNL    CL1 1222   0.746   0.365   0.764  0.5181 -0.0005  0.0031
  210UNL    CL2 1223   0.526   0.473   0.948  0.2686  0.1433 -0.0079
  210UNL      H 1224   0.717   0.583   0.855 -0.0711 -1.1917 -1.0684
  211UNL     CL 1225   2.724   3.692   3.853  0.0333 -0.2421 -0.0764
  211UNL      C 1226   2.749   3.855   3.929  0.0825 -0.2192  0.7873
  211UNL    CL1 1227   2.661   3.856   4.083  0.2800 -0.1862  0.3448
  211UNL    CL2 1228   2.929   3.889   3.950 -0.5670 -0.2311 -0.4148
  211UNL      H 1229   2.710   3.936   3.867  0.4810  1.9515  3.2001
  212UNL     CL 1230   2.029   0.360   3.862 -0.0899 -0.5298 -0.3017
  212UNL      C 1231   2.114   0.518   3.853  0.3907 -0.4938 -0.2298
  212UNL    CL1 1232   2.012   0.633   3.756 -0.3894 -0.1354  0.4415
  212UNL    CL2 1233   2.132   0.575   4.026 -0.1109  0.6172 -0.0324
  212UNL      H 1234   2.209   0.495   3.803  1.8231  1.2803  1.4882
  213UNL     CL 1235   1.669   3.113   2.345 -0.3221  0.1390 -0.5656
  213UNL      C 1236   1.501   3.178   2.355 -0.0013 -0.5501  0.2177
  213UNL    CL1 1237   1.459   3.230   2.522  0.3810  0.6359 -0.3063
  213UNL    CL2 1238   1.493   3.321   2.248 -0.3716  0.1039 -0.0876
  213UNL      H 1239   1.429   3.102   2.322  0.1954 -0.9388  0.6916
  214UNL     CL 1240   0.293   2.833   3.759 -0.0424 -0.1941  0.4096
  214UNL      C 1241   0.304   2.711   3.891  0.0154  0.3225  0.0178
  214UNL    CL1 1242   0.136   2.696   3.966 -0.3865  0.0529  0.0529
  214UNL    CL2 1243   0.354   2.554   3.822  0.5338  0.1606 -0.1888
  214UNL      H 1244   0.377   2.740   3.967 -0.3510 -0.3316  0.6366
  215UNL     CL 1245   1.836   0.822   0.291 -0.2411  0.0112 -0.1600
  215UNL      C 1246   1.835   0.919   0.143  0.0372 -0.3147 -0.3253
  215UNL    CL1 1247   1.958   1.041   0.127 -0.6876  0.0189  0.4562
  215UNL    CL2 1248   1.843   0.809   0.002 -0.0892  0.0105  0.1609
  215UNL      H 1249   1.740   0.972   0.132  0.4054  0.4459  0.1249
  216UNL     CL 1250   3.205   3.452   2.596  0.0418 -0.4846  0.2095
  216UNL      C 1251   3.075   3.495   2.479  0.1942 -0.0092  0.1854
  216UNL    CL1 1252   2.935   3.575   2.547 -0.0848 -0.2582  0.1528
  216UNL    CL2 1253   3.136   3.593   2.340 -0.1717  0.0603 -0.0468
  216UNL      H 1254   3.042   3.401   2.435  2.2594  0.0156 -1.6242
  217UNL     CL 1255   3.022   2.523   1.771  0.1063  0.1700  0.4764
  217UNL      C 1256   3.116   2.568   1.620 -0.7598 -0.5054 -0.3009
  217UNL    CL1 1257   3.066   2.737   1.578  0.3359 -0.0443  0.0610
  217UNL    CL2 1258   3.298   2.564   1.653 -0.0887  0.4235 -0.1684
  217UNL      H 1259   3.092   2.502   1.536  1.6152 -0.7709 -0.8373
  218UNL     CL 1260   3.358   1.067   0.831 -0.2042 -0.0959 -0.0067
  218UNL      C 1261   3.186   1.029   0.789 -0.0014 -0.3810  0.0178
  218UNL    CL1 1262   3.131   0.860   0.802 -0.2529 -0.1156 -0.2641
  218UNL    CL2 1263   3.087   1.141   0.885 -0.2549  0.0773 -0.3426
  218UNL      H 1264   3.181   1.051   0.682  1.5125 -0.9323 -0.1961
  219UNL     CL 1265   2.631   2.363   3.835 -0.4829 -0.2382  0.1646
  219UNL      C 1266   2.648   2.188   3.881  0.5597  1.2754 -0.5377
  219UNL    CL1 1267   2.821   2.141   3.942 -0.3036 -0.1774 -0.1859
  219UNL    CL2 1268   2.533   2.163   4.018 -0.3030  0.1328 -0.1451
  219UNL      H 1269   2.620   2.113   3.806 -0.3553 -0.7077  1.6588
  220UNL     CL 1270   1.537   2.780   3.386  0.5982  0.1675 -0.0764
  220UNL      C 1271   1.667   2.807   3.513  0.2321 -0.2880  0.4322
  220UNL    CL1 1272   1.715   2.978   3.497  0.1671  0.0047  0.2384
  220UNL    CL2 1273   1.613   2.765   3.686 -0.4074 -0.2630  0.2284
  220UNL      H 1274   1.749   2.737   3.492 -1.0826 -1.1993 -1.9581
  221UNL     CL 1275   1.711   1.526   4.190 -0.0966  0.2437 -0.7135
  221UNL      C 1276   1.801   1.527   4.037  0.4295 -0.6586 -0.2306
  221UNL    CL1 1277   1.918   1.395   4.053 -0.0049 -0.3248 -0.1290
  221UNL    CL2 1278   1.691   1.477   3.894 -0.2265 -0.0171 -0.5967
  221UNL      H 1279   1.848   1.625   4.027  0.6875 -0.5567  1.6373
  222UNL     CL 1280   1.630   3.543   1.076  0.3467  0.0742 -0.0389
  222UNL      C 1281   1.452   3.556   1.099 -0.5036  0.0915 -0.0978
  222UNL    CL1 1282   1.370   3.529   0.937 -0.5754 -0.1875 -0.6344
  222UNL    CL2 1283   1.406   3.424   1.214 -0.0527 -0.4057  0.4053
  222UNL      H 1284   1.421   3.651   1.142  0.8058 -0.0147  1.1649
  223UNL     CL 1285   1.981   2.102   3.600 -0.5220  0.1645  0.3262
  223UNL      C 1286   2.071   2.224   3.704  0.8758 -0.2313 -0.3566
  223UNL    CL1 1287   1.955   2.294   3.821 -0.4788 -0.2357 -0.0156
  223UNL    CL2 1288   2.208   2.139   3.790  0.2889  0.1767  0.3283
  223UNL      H 1289   2.112   2.307   3.646  1.2709  0.9379  1.4865
  224UNL     CL 1290   2.612   2.745   3.655  0.2026  0.3432  0.1462
  224UNL      C 1291   2.688   2.833   3.790 -0.2125 -0.5968  0.2578
  224UNL    CL1 1292   2.843   2.909   3.732 -0.6292  0.0131  0.1775
  224UNL    CL2 1293   2.570   2.962   3.863 -0.1135  0.0429 -0.0178
  224UNL      H 1294   2.710   2.761   3.869  1.3744  0.3118  0.6792
  225UNL     CL 1295   3.062   1.805   3.838  0.4122  0.0611 -0.0960
  225UNL      C 1296   3.036   1.629   3.807 -0.0685 -0.1176  0.7919
  225UNL    CL1 1297   3.187   1.530   3.825 -0.2052  0.3272  0.3506
  225UNL    CL2 1298   2.914   1.560   3.920 -0.0741  0.1222  0.2154
  225UNL      H 1299   2.997   1.617   3.705 -0.0803  0.9544  0.6577
  226UNL     CL 1300   1.014   0.294   1.327 -0.4008 -0.5143 -0.2850
  226UNL      C 1301   0.975   0.165   1.206  0.2837  0.4326 -0.2717
  226UNL    CL1 1302   1.056   0.196   1.054 -0.0391  0.3000 -0.5676
  226UNL    CL2 1303   1.033   0.004   1.258  0.2157 -0.0409  0.2779
  226UNL      H 1304   0.869   0.163   1.180  0.3580 -0.0476 -0.5487
  227UNL     CL 1305   0.323   3.203   0.693  0.0872  0.2562 -0.1232
  227UNL      C 1306   0.332   3.055   0.797 -0.6262 -0.3821  0.2112
  227UNL    CL1 1307   0.216   3.076   0.943  0.6260  0.1951  0.2569
  227UNL    CL2 1308   0.285   2.919   0.688 -0.3839 -0.1531 -0.4763
  227UNL      H 1309   0.433   3.045   0.838 -1.0600 -1.0652  1.1704
  228UNL     CL 1310   2.188   2.654   3.372  0.2895  0.0745 -0.3261
  228UNL      C 1311   2.096   2.671   3.527 -0.7634 -0.7734 -0.3871
  228UNL    CL1 1312   1.939   2.576   3.520 -0.6493 -0.3657 -0.5231
  228UNL    CL2 1313   2.197   2.604   3.661 -0.3906  0.1572  0.1934
  228UNL      H 1314   2.085   2.773   3.564  2.0551 -1.5568  3.1853
  229UNL     CL 1315   0.092   0.045   1.103  0.1234 -0.2063  0.2100
  229UNL      C 1316   0.060   0.220   1.078 -0.9051 -0.0785 -0.2343
  229UNL    CL1 1317   0.217   0.310   1.066 -0.1809  0.0938  0.4539
  229UNL    CL2 1318  -0.020   0.234   0.922  0.0698  0.3228 -0.1008
  229UNL      H 1319  -0.008   0.255   1.156 -0.1976 -0.5632  0.6085
  230UNL     CL 1320   1.982   3.527   3.569 -0.2990  0.0551  0.0681
  230UNL      C 1321   1.886   3.499   3.415 -0.3392  0.6574  0.1331
  230UNL    CL1 1322   1.987   3.434   3.283 -0.0391 -0.2929 -0.1304
  230UNL    CL2 1323   1.746   3.384   3.457  0.0310  0.1736 -0.1679
  230UNL      H 1324   1.841   3.594   3.384 -1.5991 -0.7187 -2.6557
  231UNL     CL 1325   1.247   0.547   2.992 -0.4333  0.3800 -0.2353
  231UNL      C 1326   1.148   0.571   2.844 -0.0760  0.6035  0.1915
  231UNL    CL1 1327   0.992   0.480   2.858 -0.2711 -0.0125 -0.0943
  231UNL    CL2 1328   1.121   0.747   2.813  0.4489 -0.0492 -0.0854
  231UNL      H 1329   1.200   0.540   2.753  1.2756  1.1043  0.7731
  232UNL     CL 1330   3.714   2.280   2.353 -0.0449  0.6022  0.1824
  232UNL      C 1331   3.766   2.339   2.511 -0.5687  0.2691  0.5503
  232UNL    CL1 1332   3.761   2.519   2.529  0.2604  0.4652 -0.2239
  232UNL    CL2 1333   3.646   2.264   2.612  0.1865 -0.1932  0.2100
  232UNL      H 1334   3.866   2.303   2.539 -0.3791  2.3662  2.9526
  233UNL     CL 1335   0.889   2.087   2.100  0.3243  0.1666  0.0690
  233UNL      C 1336   0.809   2.200   1.984  0.1131 -0.5643 -0.0981
  233UNL    CL1 1337   0.742   2.343   2.077  0.5468 -0.0984 -0.3238
  233UNL    CL2 1338   0.929   2.252   1.858 -0.0826  0.3128 -0.2509
  233UNL      H 1339   0.728   2.155   1.925 -0.0541  0.0078 -0.3211
  234UNL     CL 1340   0.585   3.315   3.037 -0.0359 -0.3003  0.2782
  234UNL      C 1341   0.640   3.161   3.108 -0.5822 -0.0133 -1.0105
  234UNL    CL1 1342   0.806   3.119   3.071  0.1800  0.3733  0.0633
  234UNL    CL2 1343   0.610   3.150   3.288 -0.3469  0.0158 -0.0773
  234UNL      H 1344   0.578   3.084   3.061 -0.3787 -0.7246 -0.1421
  235UNL     CL 1345   2.918   3.281   1.991 -0.0673  0.0259  0.1536
  235UNL      C 1346   3.019   3.308   1.839  0.5101 -0.4326  0.0381
  235UNL    CL1 1347   2.984   3.462   1.757  0.2917 -0.2730 -1.0088
  235UNL    CL2 1348   3.197   3.324   1.870 -0.2799 -0.0960  0.3269
  235UNL      H 1349   2.987   3.227   1.773 -0.2589 -0.2999  0.2288
  236UNL     CL 1350   0.460   0.175   3.787 -0.0845 -0.0603 -0.0079
  236UNL      C 1351   0.351   0.025   3.769  0.3233 -0.7557  0.0804
  236UNL    CL1 1352   0.452  -0.125   3.749  0.4234 -0.4842  0.1677
  236UNL    CL2 1353   0.272   0.008   3.929 -0.1345  0.2493  0.1477
  236UNL      H 1354   0.274   0.042   3.693  0.9438 -1.4762 -0.7264
  237UNL     CL 1355   3.975   3.999   0.974  0.3621 -0.2891 -0.1569
  237UNL      C 1356   4.146   3.949   0.990  0.1443  0.0862  0.4829
  237UNL    CL1 1357   4.162   3.853   1.143  0.0094  0.5272 -0.3506
  237UNL    CL2 1358   4.193   3.844   0.856 -0.1987 -0.1362 -0.0280
  237UNL      H 1359   4.213   4.035   0.988 -0.2626  0.4074 -1.4538
  238UNL     CL 1360   0.960   1.258   2.754 -0.2672  0.1065 -0.3377
  238UNL      C 1361   0.912   1.175   2.602  0.1862  0.6300  0.4562
  238UNL    CL1 1362   0.759   1.073   2.631 -0.0970 -0.1464 -0.1257
  238UNL    CL2 1363   0.875   1.292   2.464 -0.1499  0.0050  0.0787
  238UNL      H 1364   0.995   1.109   2.574 -1.6928 -1.5913 -0.1612
  239UNL     CL 1365   3.129   3.966   3.672  0.2282  0.0036 -0.3635
  239UNL      C 1366   3.230   3.827   3.624  0.3427 -0.3276 -0.9546
  239UNL    CL1 1367   3.401   3.864   3.673 -0.2562 -0.1794 -0.6201
  239UNL    CL2 1368   3.177   3.672   3.709  0.1054  0.3903  0.2130
  239UNL      H 1369   3.219   3.831   3.515  2.1800  1.3242 -1.1338
  240UNL     CL 1370   3.904   1.769   1.772 -0.0772  0.0979  0.1314
  240UNL      C 1371   3.931   1.746   1.599  0.1159 -0.5755 -1.0926
  240UNL    CL1 1372   3.807   1.635   1.527  0.0214  0.3283  0.0505
  240UNL    CL2 1373   3.907   1.910   1.511 -0.2634 -0.0066 -0.1305
  240UNL      H 1374   4.030   1.706   1.575  1.4486  1.4585  0.6487
  241UNL     CL 1375   3.659   2.240   1.985 -0.5789  0.0816  0.4772
  241UNL      C 1376   3.524   2.127   1.988 -0.1007 -0.4900  0.3288
  241UNL    CL1 1377   3.375   2.184   1.892  0.0128  0.0784 -0.2239
  241UNL    CL2 1378   3.571   1.964   1.932 -0.2888 -0.5356 -0.2780
  241UNL      H 1379   3.494   2.108   2.091 -0.3038 -0.2375  0.3185
  242UNL     CL 1380   1.631   2.927   4.003 -0.1696  0.0491  0.1050
  242UNL      C 1381   1.580   2.881   4.163 -0.3075 -0.0241  0.1381
  242UNL    CL1 1382   1.646   2.714   4.202 -0.2414 -0.2134 -0.0658
  242UNL    CL2 1383   1.635   2.997   4.285  0.2892  0.4072  0.4218
  242UNL      H 1384   1.471   2.883   4.163 -0.4059 -2.6273 -0.1816
  243UNL     CL 1385   1.918   0.200   0.452  0.0249  0.1338  0.1371
  243UNL      C 1386   1.793   0.093   0.524 -0.0680  0.2956 -0.2010
  243UNL    CL1 1387   1.704   0.004   0.406  0.2351  0.3302 -0.1060
  243UNL    CL2 1388   1.874  -0.031   0.630  0.2122  0.2474 -0.1336
  243UNL      H 1389   1.723   0.155   0.582  1.8340  0.9674  1.5325
  244UNL     CL 1390   1.382   0.046   3.735  0.3617 -0.0147  0.0062
  244UNL      C 1391   1.529   0.073   3.831 -0.3712  0.1853  0.0437
  244UNL    CL1 1392   1.494   0.103   4.003  0.0656  0.1779 -0.0900
  244UNL    CL2 1393   1.645  -0.075   3.829  0.4128  0.2629  0.0032
  244UNL      H 1394   1.592   0.150   3.785  1.9949 -1.6646 -0.0330
  245UNL     CL 1395   0.383   0.134   2.083 -0.0570 -0.2669  0.1728
  245UNL      C 1396   0.404   0.009   2.210  0.3508 -0.0546  0.9814
  245UNL    CL1 1397   0.262  -0.101   2.220  0.5054  0.2232 -0.0750
  245UNL    CL2 1398   0.555  -0.077   2.166 -0.3822 -0.1789 -0.1493
  245UNL      H 1399   0.416   0.055   2.309 -0.0718 -0.1328  1.0713
  246UNL     CL 1400   2.384   0.555   1.850  0.0114 -0.0137 -0.0602
  246UNL      C 1401   2.348   0.374   1.833 -0.2337 -0.0083 -0.3808
  246UNL    CL1 1402   2.276   0.333   1.670  0.0075 -0.1640  0.1224
  246UNL    CL2 1403   2.490   0.260   1.848 -0.1377 -0.5909  0.2787
  246UNL      H 1404   2.276   0.353   1.912  0.2999  2.4802  0.8422
  247UNL     CL 1405   1.270   0.683   2.448  0.0221 -0.0099 -0.0671
  247UNL      C 1406   1.267   0.835   2.357  0.7125 -0.1827  0.3214
  247UNL    CL1 1407   1.122   0.939   2.394  0.0147  0.2566 -0.0941
  247UNL    CL2 1408   1.425   0.917   2.367  0.0819 -0.1503  0.2589
  247UNL      H 1409   1.265   0.810   2.251 -1.3414  1.1665 -0.0101
  248UNL     CL 1410   2.936   3.333   0.471 -0.3164 -0.3082 -0.4349
  248UNL      C 1411   2.896   3.479   0.573 -0.6483  0.2010  0.2422
  248UNL    CL1 1412   2.719   3.516   0.548  0.2295 -0.0082 -0.3224
  248UNL    CL2 1413   2.939   3.445   0.744  0.3483 -0.0708  0.0782
  248UNL      H 1414   2.952   3.568   0.542 -1.3388  0.7634  0.5772
  249UNL     CL 1415   2.947   1.361   1.179  0.8033 -0.0284 -0.4387
  249UNL      C 1416   3.099   1.449   1.193  0.1463  0.2306 -0.0229
  249UNL    CL1 1417   3.230   1.385   1.079 -0.0919  0.3026 -0.2274
  249UNL    CL2 1418   3.065   1.623   1.159  0.0914 -0.0587  0.1420
  249UNL      H 1419   3.146   1.428   1.290 -1.5701 -1.4765  0.5087
  250UNL     CL 1420   3.153   2.875   0.960 -0.3540  0.1907 -0.3982
  250UNL      C 1421   3.090   2.997   0.836 -0.2650  0.0834 -0.6126
  250UNL    CL1 1422   3.152   3.154   0.886 -0.2250  0.0383 -0.3695
  250UNL    CL2 1423   3.144   2.965   0.668  0.1802 -0.0706 -0.0135
  250UNL      H 1424   2.980   3.003   0.832 -0.1986  2.5994  0.0760
  251UNL     CL 1425   3.233   2.210   3.575 -0.2023  0.2873 -0.4057
  251UNL      C 1426   3.149   2.364   3.566  0.2510  0.4172 -0.2154
  251UNL    CL1 1427   3.153   2.440   3.398 -0.1434 -0.2675 -0.2163
  251UNL    CL2 1428   2.972   2.344   3.619 -0.1027  0.1051  0.3395
  251UNL      H 1429   3.187   2.435   3.640 -1.6542  1.5594 -0.2591
  252UNL     CL 1430   0.033   3.277   1.864 -0.0471 -0.0465 -0.0592
  252UNL      C 1431   0.068   3.228   1.704 -0.2168  0.1283 -0.0523
  252UNL    CL1 1432   0.243   3.188   1.687  0.0800 -0.0685 -0.1142
  252UNL    CL2 1433  -0.014   3.075   1.655 -0.3566  0.1988 -0.2019
  252UNL      H 1434   0.053   3.315   1.639  1.1813  0.2737 -0.1956
  253UNL     CL 1435   0.527   1.092   2.210 -0.1030 -0.2103 -0.1422
  253UNL      C 1436   0.454   1.234   2.120 -0.5676  0.8901  0.0307
  253UNL    CL1 1437   0.586   1.341   2.065 -0.3750  0.4319 -0.0436
  253UNL    CL2 1438   0.332   1.188   1.997  0.1322 -0.3030  0.2555
  253UNL      H 1439   0.396   1.289   2.195  2.2522  1.0266  2.3330
  254UNL     CL 1440   0.543   3.704   3.954  0.0867  0.2586  0.2167
  254UNL      C 1441   0.451   3.655   3.809  0.8657 -0.0881  0.1815
  254UNL    CL1 1442   0.506   3.776   3.673  0.2407  0.5126  0.3916
  254UNL    CL2 1443   0.483   3.475   3.779 -0.1436  0.0639  0.2390
  254UNL      H 1444   0.344   3.667   3.830  0.8648 -1.7224  1.3002
  255UNL     CL 1445   1.065   3.555   0.542 -0.4832  0.1995  0.0789
  255UNL      C 1446   0.963   3.657   0.644  0.3697  0.2874 -0.3902
  255UNL    CL1 1447   1.016   3.658   0.822 -0.0275 -0.1010  0.2511
  255UNL    CL2 1448   0.945   3.821   0.567 -0.1145  0.1036  0.2272
  255UNL      H 1449   0.858   3.625   0.643  0.5667 -0.4417  0.8693
  256UNL     CL 1450   3.461   1.448   2.713  0.2196 -0.6011 -0.3348
  256UNL      C 1451   3.595   1.458   2.827 -0.3999  0.7332  0.0816
  256UNL    CL1 1452   3.652   1.293   2.875  0.1205 -0.1190  0.2258
  256UNL    CL2 1453   3.730   1.530   2.740  0.2178  0.2403  0.3094
  256UNL      H 1454   3.568   1.514   2.917 -0.7829 -0.4408  0.7336
  257UNL     CL 1455   2.014   3.009   3.688  0.1526 -0.3598 -0.0417
  257UNL      C 1456   1.925   3.057   3.823  0.7383 -0.2918  0.1052
  257UNL    CL1 1457   2.023   3.173   3.924 -0.0388  0.3569  0.2745
  257UNL    CL2 1458   1.774   3.143   3.767  0.1392 -0.0324 -0.4008
  257UNL      H 1459   1.907   2.965   3.878  2.2697 -1.8810 -1.9032
  258UNL     CL 1460   3.744   2.511   3.649  0.2449 -0.2652  0.5160
  258UNL      C 1461   3.807   2.657   3.729 -0.1139 -1.1511  0.1138
  258UNL    CL1 1462   3.668   2.751   3.818  0.2226 -0.2051 -0.2701
  258UNL    CL2 1463   3.931   2.612   3.845 -0.2277 -0.0589  0.2044
  258UNL      H 1464   3.854   2.731   3.664 -0.4588  0.6454  1.8127
  259UNL     CL 1465   1.394   2.872   1.886 -0.0287  0.1793  0.1159
  259UNL      C 1466   1.446   2.798   1.730 -0.0115  0.4346  0.4550
  259UNL    CL1 1467   1.445   2.630   1.759 -0.0242 -0.0447  0.2054
  259UNL    CL2 1468   1.337   2.852   1.601 -0.1246 -0.1403  0.4308
  259UNL      H 1469   1.551   2.818   1.705  0.0586 -0.5470 -0.1072
  260UNL     CL 1470   0.230   3.991   2.605  0.1403  0.0829  0.3117
  260UNL      C 1471   0.259   4.073   2.762 -0.6418  0.1859 -1.1007
  260UNL    CL1 1472   0.264   3.965   2.896 -0.0495  0.0501  0.3120
  260UNL    CL2 1473   0.414   4.168   2.754 -0.1098 -0.3743 -0.0381
  260UNL      H 1474   0.185   4.151   2.785 -0.9971 -0.2352 -0.8222
  261UNL     CL 1475   1.201   2.525   1.517  0.0723  0.3143 -0.2487
  261UNL      C 1476   1.216   2.401   1.381  0.5118 -0.3544  0.0414
  261UNL    CL1 1477   1.380   2.330   1.381  0.0348  0.5343 -0.0793
  261UNL    CL2 1478   1.101   2.268   1.412  0.0012  0.1107 -0.2121
  261UNL      H 1479   1.197   2.445   1.282  1.4107  1.3246  0.5765
  262UNL     CL 1480   2.950   2.672   3.105 -0.1418  0.2446  0.0885
  262UNL      C 1481   2.848   2.540   3.034  0.2868 -0.1092  0.0191
  262UNL    CL1 1482   2.912   2.470   2.881 -0.0754 -0.0879 -0.0201
  262UNL    CL2 1483   2.812   2.414   3.152 -0.1291 -0.1006  0.3197
  262UNL      H 1484   2.752   2.587   3.009  1.7313  2.8920 -0.4433
  263UNL     CL 1485   3.440   0.058   2.870  0.3663  0.0447  0.1348
  263UNL      C 1486   3.456  -0.026   3.034  0.2012  0.0579 -0.5068
  263UNL    CL1 1487   3.542   0.091   3.133  0.2512 -0.0756 -0.3027
  263UNL    CL2 1488   3.287  -0.069   3.091 -0.0590 -0.5196  0.1431
  263UNL      H 1489   3.528  -0.108   3.023  0.1892  0.0870 -0.8045
  264UNL     CL 1490   0.324   2.980   3.399 -0.4413 -0.2361 -0.1519
  264UNL      C 1491   0.420   2.834   3.397  1.0109  0.8039 -0.6237
  264UNL    CL1 1492   0.326   2.674   3.391  0.0231  0.1558 -0.3560
  264UNL    CL2 1493   0.536   2.830   3.264  0.0677  0.0547 -0.3161
  264UNL      H 1494   0.470   2.839   3.494 -1.9364  2.0276  0.9622
  265UNL     CL 1495   0.799   0.135   0.504 -0.5313  0.1371  0.1275
  265UNL      C 1496   0.811   0.098   0.334 -0.0289  0.2635  0.7082
  265UNL    CL1 1497   0.774   0.247   0.241 -0.1141 -0.2571  0.1278
  265UNL    CL2 1498   0.973   0.042   0.278  0.0521  0.1814 -0.3741
  265UNL      H 1499   0.745   0.015   0.306 -1.5591  1.1472  1.5886
  266UNL     CL 1500   3.126   3.155   3.872  0.0540  0.5034  0.1464
  266UNL      C 1501   3.048   3.274   3.759 -0.1065 -0.0443  0.1071
  266UNL    CL1 1502   2.953   3.409   3.845  0.3120  0.0909  0.0622
  266UNL    CL2 1503   3.169   3.350   3.652  0.5135 -0.1217  0.3663
  266UNL      H 1504   2.978   3.223   3.691 -0.6057  0.5601  0.1502
  267UNL     CL 1505   1.941   1.481   2.612  0.1900 -0.2862 -0.1474
  267UNL      C 1506   2.087   1.494   2.499  0.9441 -0.0718  0.2326
  267UNL    CL1 1507   2.202   1.626   2.560  0.2274 -0.1487  0.2863
  267UNL    CL2 1508   2.171   1.339   2.460 -0.1365  0.0109  0.4042
  267UNL      H 1509   2.052   1.537   2.405  1.9521 -0.7084 -0.4456
  268UNL     CL 1510   1.350   0.622   3.567  0.4123  0.5698  0.2053
  268UNL      C 1511   1.307   0.551   3.404  0.5602 -0.1778 -0.1588
  268UNL    CL1 1512   1.418   0.625   3.286  0.7081  0.3832 -0.1644
  268UNL    CL2 1513   1.337   0.378   3.395 -0.6368  0.3049 -0.3090
  268UNL      H 1514   1.200   0.575   3.399  0.8355  1.4488  0.7613
  269UNL     CL 1515   0.707   2.945   3.564  0.2861 -0.0173 -0.1169
  269UNL      C 1516   0.631   3.044   3.682 -0.1024 -0.8412 -0.2732
  269UNL    CL1 1517   0.728   3.044   3.835  0.0226 -0.0493  0.0667
  269UNL    CL2 1518   0.605   3.208   3.623  0.1214  0.0361  0.0830
  269UNL      H 1519   0.534   2.998   3.704 -0.9189  0.0758 -1.7724
  270UNL     CL 1520   2.279   1.369   0.696 -0.4751 -0.3239 -0.1327
  270UNL      C 1521   2.352   1.221   0.627 -0.3029  0.4860 -0.1796
  270UNL    CL1 1522   2.496   1.245   0.505 -0.1223 -0.2092 -0.1970
  270UNL    CL2 1523   2.419   1.132   0.769  0.4058  0.1371  0.0203
  270UNL      H 1524   2.270   1.157   0.593  0.1701 -0.1942 -0.0768
  271UNL     CL 1525   1.820   1.469   3.019  0.2039  0.1299 -0.2298
  271UNL      C 1526   1.649   1.397   2.980  0.2602 -0.7724 -0.1447
  271UNL    CL1 1527   1.584   1.473   2.828 -0.0041 -0.2308  0.2370
  271UNL    CL2 1528   1.665   1.217   2.979  0.1540 -0.1676 -0.0529
  271UNL      H 1529   1.593   1.426   3.069  4.1492  0.7638  2.0423
  272UNL     CL 1530   1.272   2.548   2.098 -0.5309 -0.0102  0.1094
  272UNL      C 1531   1.192   2.403   2.161 -0.1040 -0.1538  0.2739
  272UNL    CL1 1532   1.318   2.291   2.213 -0.1961 -0.0758  0.2211
  272UNL    CL2 1533   1.080   2.456   2.299 -0.0019  0.3400 -0.0535
  272UNL      H 1534   1.129   2.358   2.083 -0.2811  0.6840 -0.0853
  273UNL     CL 1535   0.524   1.725   0.016  0.1085 -0.5577 -0.3133
  273UNL      C 1536   0.432   1.666   0.162 -0.4039 -0.4259 -0.6019
  273UNL    CL1 1537   0.326   1.799   0.222 -0.2392  0.0520 -0.2889
  273UNL    CL2 1538   0.324   1.526   0.137  0.2070 -0.0544  0.1946
  273UNL      H 1539   0.508   1.643   0.238  0.2736  1.9232 -0.4860
  274UNL     CL 1540   0.127   2.223   1.044  0.1251  0.5658 -0.2345
  274UNL      C 1541  -0.002   2.254   0.912  0.5111 -0.5078  0.5405
  274UNL    CL1 1542  -0.024   2.431   0.892 -0.3997 -0.2907  0.0991
  274UNL    CL2 1543   0.044   2.188   0.754  0.4698 -0.1838  0.1316
  274UNL      H 1544  -0.093   2.203   0.946  0.6082 -0.5043  0.8072
  275UNL     CL 1545   3.180   2.303   0.189  0.0244 -0.2809  0.2016
  275UNL      C 1546   3.032   2.333   0.088 -0.4461 -0.1974 -0.4845
  275UNL    CL1 1547   2.953   2.173   0.055 -0.1642  0.2410  0.1458
  275UNL    CL2 1548   2.907   2.445   0.156  0.3704  0.1951  0.0708
  275UNL      H 1549   3.072   2.380  -0.002  0.9905  0.3969  0.4214
  276UNL     CL 1550   3.792   0.118   0.939 -0.6994  0.2219 -0.4844
  276UNL      C 1551   3.748   0.213   0.788  0.3457  0.0223 -0.5209
  276UNL    CL1 1552   3.599   0.314   0.803  0.2010 -0.1099 -0.0902
  276UNL    CL2 1553   3.883   0.310   0.732  0.3147  0.3433 -0.2522
  276UNL      H 1554   3.731   0.144   0.704  1.8015  1.6387 -2.2080
  277UNL     CL 1555   3.325   2.788   3.815  0.1504  0.0682 -0.1504
  277UNL      C 1556   3.142   2.787   3.829 -0.1962 -0.0951  0.1443
  277UNL    CL1 1557   3.089   2.672   3.696  0.3247  0.0104 -0.2719
  277UNL    CL2 1558   3.087   2.733   3.987  0.1703 -0.3092  0.1022
  277UNL      H 1559   3.099   2.881   3.794 -0.9206 -0.7495 -0.7583
  278UNL     CL 1560   2.717   1.764   4.165 -0.3547 -0.1337  0.1449
  278UNL      C 1561   2.849   1.804   4.278 -0.4434 -0.6643 -0.5880
  278UNL    CL1 1562   2.844   1.708   4.431  0.1428  0.1334 -0.3004
  278UNL    CL2 1563   2.995   1.776   4.193  0.0475 -0.0719 -0.1701
  278UNL      H 1564   2.844   1.912   4.300 -0.7939 -0.4824 -1.5335
  279UNL     CL 1565   3.974   3.935   1.855 -0.5349 -0.0061  0.0974
  279UNL      C 1566   3.960   4.080   1.737  0.8161  0.8031  0.4145
  279UNL    CL1 1567   3.901   4.223   1.837  0.0179  0.2421 -0.0270
  279UNL    CL2 1568   4.127   4.109   1.679 -0.2249 -0.1164 -0.0148
  279UNL      H 1569   3.891   4.050   1.657  1.0821 -0.4323  0.6290
  280UNL     CL 1570   0.238   2.275   2.607  0.0061  0.0223 -0.0579
  280UNL      C 1571   0.334   2.252   2.447  0.0353 -0.4387 -0.0199
  280UNL    CL1 1572   0.277   2.102   2.368  0.4006 -0.3633 -0.0056
  280UNL    CL2 1573   0.280   2.389   2.345  0.0185 -0.6332  0.1006
  280UNL      H 1574   0.443   2.253   2.454  0.1412 -3.7823  0.6022
  281UNL     CL 1575   2.681   3.138   2.530 -0.2753  0.0368  0.1877
  281UNL      C 1576   2.750   3.124   2.361 -0.7482  0.0935 -0.3962
  281UNL    CL1 1577   2.804   3.287   2.310 -0.1174 -0.3453 -0.4033
  281UNL    CL2 1578   2.891   3.000   2.356 -0.3159  0.0948  0.0251
  281UNL      H 1579   2.667   3.090   2.298  0.8247 -4.1287 -0.5097
  282UNL     CL 1580   3.371   0.486   0.481  0.2041 -0.2730  0.3126
  282UNL      C 1581   3.316   0.589   0.342  1.2217 -0.0249  0.5295
  282UNL    CL1 1582   3.279   0.489   0.206 -0.2355 -0.0046 -0.0086
  282UNL    CL2 1583   3.154   0.675   0.369  0.1118 -0.2919 -0.1027
  282UNL      H 1584   3.391   0.662   0.311 -0.6933  2.0508  0.5328
  283UNL     CL 1585   3.941   1.215   3.160 -0.2061  0.1362 -0.0603
  283UNL      C 1586   3.783   1.133   3.220  0.9297  0.2108 -0.7966
  283UNL    CL1 1587   3.788   0.968   3.155  0.1546  0.0619 -0.1379
  283UNL    CL2 1588   3.753   1.138   3.396  0.0044  0.0968  0.1135
  283UNL      H 1589   3.699   1.186   3.173  1.0413 -0.7327 -2.1054
  284UNL     CL 1590   2.918   1.184   3.085  0.1646 -0.2368  0.6055
  284UNL      C 1591   2.856   1.121   3.241  0.0900  0.1173  0.0216
  284UNL    CL1 1592   2.958   1.180   3.384  0.4876  0.1612  0.0101
  284UNL    CL2 1593   2.698   1.184   3.258 -0.4695  0.0281  0.0933
  284UNL      H 1594   2.845   1.012   3.240  2.6974 -0.2559  2.1837
  285UNL     CL 1595   0.767   2.508   0.208  0.2984 -0.2582  0.0878
  285UNL      C 1596   0.915   2.429   0.146  0.5143  0.0399  0.2500
  285UNL    CL1 1597   1.051   2.543   0.116  0.3126  0.1311  0.4380
  285UNL    CL2 1598   0.977   2.312   0.261 -0.0130 -0.2729 -0.0970
  285UNL      H 1599   0.884   2.365   0.063  1.5793 -2.6531  1.7930
  286UNL     CL 1600   2.835   0.032   1.858  0.5773  0.0271  0.4762
  286UNL      C 1601   2.870  -0.097   1.981 -0.1171 -0.0189  0.1365
  286UNL    CL1 1602   2.718  -0.142   2.052  0.0290 -0.2826  0.0340
  286UNL    CL2 1603   2.947  -0.237   1.904 -0.2548 -0.1403  0.7793
  286UNL      H 1604   2.938  -0.054   2.055  0.6119  0.5519 -0.8392
  287UNL     CL 1605   1.381   1.270   2.555 -0.2035 -0.0701  0.2481
  287UNL      C 1606   1.426   1.172   2.702  0.8320 -0.8449 -0.1232
  287UNL    CL1 1607   1.299   1.064   2.760 -0.1368 -0.1315 -0.0435
  287UNL    CL2 1608   1.572   1.085   2.673  0.0907 -0.0709  0.5018
  287UNL      H 1609   1.445   1.238   2.788 -1.0771  0.4728 -0.6450
  288UNL     CL 1610   1.237   0.504   1.163  0.1424  0.1851  0.1052
  288UNL      C 1611   1.279   0.631   1.045 -0.5671  0.1708  0.1735
  288UNL    CL1 1612   1.128   0.680   0.974  0.0303 -0.4558 -0.1585
  288UNL    CL2 1613   1.368   0.760   1.121  0.0346  0.0734 -0.0879
  288UNL      H 1614   1.340   0.584   0.967  0.1072  1.0452  0.1609
  289UNL     CL 1615   1.945   3.815   4.045 -0.1185 -0.0723 -0.3342
  289UNL      C 1616   1.944   3.678   3.928  0.5512 -0.2743 -0.0749
  289UNL    CL1 1617   2.080   3.570   3.973  0.4432  0.0617  0.5485
  289UNL    CL2 1618   1.787   3.601   3.935 -0.3422  0.1697  0.1009
  289UNL      H 1619   1.943   3.721   3.828 -2.5094  0.1117  0.0372
  290UNL     CL 1620   0.335   3.594   0.572  0.0519 -0.1246  0.4885
  290UNL      C 1621   0.444   3.727   0.600 -0.6582 -0.3417  0.4006
  290UNL    CL1 1622   0.486   3.716   0.772 -0.4522  0.4596 -0.2864
  290UNL    CL2 1623   0.586   3.698   0.500 -0.0773 -0.2947  0.0235
  290UNL      H 1624   0.394   3.823   0.582 -0.6836 -0.3706  0.3176
  291UNL     CL 1625   3.314   1.196   3.254  0.1579  0.1351  0.7452
  291UNL      C 1626   3.335   1.319   3.380  0.2527  0.2892  1.2435
  291UNL    CL1 1627   3.352   1.233   3.543 -0.1159  0.4783 -0.0422
  291UNL    CL2 1628   3.483   1.414   3.336 -0.1586  0.3292 -0.1930
  291UNL      H 1629   3.249   1.387   3.375  0.6477  0.7099 -0.7586
  292UNL     CL 1630   2.649   0.539   3.296  0.0822  0.4211  0.0557
  292UNL      C 1631   2.604   0.659   3.164 -0.4330  0.2034 -0.1989
  292UNL    CL1 1632   2.568   0.813   3.235  0.5568 -0.3087 -0.0873
  292UNL    CL2 1633   2.749   0.685   3.052 -0.3745 -0.0816  0.2656
  292UNL      H 1634   2.525   0.620   3.099 -1.4795  1.4190  0.2919
  293UNL     CL 1635   0.866   2.317   3.994  0.6165 -0.3565 -0.5739
  293UNL      C 1636   0.701   2.363   3.910  0.2092  0.2799  0.4099
  293UNL    CL1 1637   0.594   2.435   4.034  0.2040 -0.5789 -0.1559
  293UNL    CL2 1638   0.725   2.502   3.798  0.0894 -0.0090  0.1293
  293UNL      H 1639   0.654   2.278   3.862  1.5139 -0.0577 -0.3029
  294UNL     CL 1640   1.397   1.714   2.503 -0.0521 -0.1591  0.5733
  294UNL      C 1641   1.517   1.602   2.458  0.1241  0.1503  0.2358
  294UNL    CL1 1642   1.467   1.526   2.300 -0.0368 -0.1762  0.3304
  294UNL    CL2 1643   1.679   1.685   2.445  0.5527 -0.3966 -0.3799
  294UNL      H 1644   1.517   1.529   2.539  3.5962  0.4984  0.7123
  295UNL     CL 1645   3.531   3.436   1.311  0.2589  0.1096 -0.2110
  295UNL      C 1646   3.403   3.351   1.405 -0.1551 -0.0571 -0.5720
  295UNL    CL1 1647   3.283   3.466   1.483 -0.2511 -0.2118 -0.1347
  295UNL    CL2 1648   3.343   3.212   1.291  0.0965  0.0454 -0.0852
  295UNL      H 1649   3.457   3.306   1.489  1.0894 -0.5258 -1.5988
  296UNL     CL 1650   4.109   2.187   2.312  0.0946  0.0802  0.0497
  296UNL      C 1651   4.140   2.029   2.221 -0.0464  0.0553 -0.5189
  296UNL    CL1 1652   3.979   1.966   2.156  0.0570  0.5711 -0.0675
  296UNL    CL2 1653   4.265   2.051   2.094  0.0718  0.0132 -0.3098
  296UNL      H 1654   4.171   1.955   2.295  2.9469  1.8576  0.1893
  297UNL     CL 1655   0.348   1.956   3.306 -0.0959 -0.2733 -0.3609
  297UNL      C 1656   0.187   1.949   3.236 -0.0272  0.1484 -0.7961
  297UNL    CL1 1657   0.090   2.078   3.295 -0.3542 -0.3565 -0.0418
  297UNL    CL2 1658   0.195   1.975   3.050 -0.1680  0.2443 -0.1117
  297UNL      H 1659   0.138   1.852   3.249 -0.5000  0.4597 -0.2369
  298UNL     CL 1660   0.286   2.041   1.304 -0.2049 -0.1661 -0.1951
  298UNL      C 1661   0.416   1.917   1.289  0.5209  0.4862 -0.3024
  298UNL    CL1 1662   0.480   1.898   1.453 -0.0110 -0.1260  0.0926
  298UNL    CL2 1663   0.350   1.754   1.245 -0.2418 -0.0333 -0.1676
  298UNL      H 1664   0.492   1.955   1.220 -1.9716 -0.9772 -4.1687
  299UNL     CL 1665   2.599   2.742   3.213 -0.2709 -0.0174  0.3327
  299UNL      C 1666   2.552   2.918   3.227  0.3573  0.3180  0.2163
  299UNL    CL1 1667   2.409   2.944   3.109 -0.2881  0.5431 -0.1556
  299UNL    CL2 1668   2.487   2.959   3.391 -0.2179  0.2714 -0.0106
  299UNL      H 1669   2.630   2.985   3.187 -0.1048 -0.2886 -1.8251
  300UNL     CL 1670   1.992   1.141   0.498  0.1533 -0.3100  0.0117
  300UNL      C 1671   1.894   1.300   0.516 -0.5484 -0.2781 -0.1042
  300UNL    CL1 1672   1.750   1.286   0.414 -0.1351  0.3815  0.4121
  300UNL    CL2 1673   1.864   1.336   0.697 -0.0378 -0.1647 -0.0036
  300UNL      H 1674   1.954   1.383   0.480 -0.5032 -0.6466 -0.9090
  301UNL     CL 1675   0.996   1.977   3.365 -0.2204 -0.0741  0.4453
  301UNL      C 1676   0.839   1.905   3.380  0.0518  0.6777  0.3751
  301UNL    CL1 1677   0.773   1.956   3.540 -0.3252 -0.3511  0.0977
  301UNL    CL2 1678   0.735   1.952   3.248  0.0044  0.4846  0.5782
  301UNL      H 1679   0.854   1.797   3.386  1.3906  0.6639 -1.9880
  302UNL     CL 1680   2.241   0.821   1.460  0.4733 -0.0360  0.2501
  302UNL      C 1681   2.147   0.661   1.453  0.4714 -0.8285  0.3423
  302UNL    CL1 1682   2.262   0.525   1.395  0.0681 -0.4024 -0.3070
  302UNL    CL2 1683   2.080   0.629   1.613 -0.0527  0.3094 -0.4611
  302UNL      H 1684   2.067   0.658   1.379  0.7074 -3.1457  0.1252
  303UNL     CL 1685   0.990   0.712   0.294 -0.0256  0.4298  0.0459
  303UNL      C 1686   1.076   0.650   0.446  0.2122  0.0282 -0.4347
  303UNL    CL1 1687   1.022   0.477   0.486  0.0450 -0.2958  0.2668
  303UNL    CL2 1688   1.256   0.641   0.441  0.5475 -0.1495 -0.0963
  303UNL      H 1689   1.040   0.716   0.525  0.6190  0.3444 -0.5169
  304UNL     CL 1690   2.753   1.500   2.843  0.1281 -0.1899 -0.2855
  304UNL      C 1691   2.640   1.593   2.939  0.6050  0.0782  0.4345
  304UNL    CL1 1692   2.584   1.492   3.076  0.0248  0.1228 -0.3976
  304UNL    CL2 1693   2.708   1.745   2.989 -0.0040  0.0930 -0.1302
  304UNL      H 1694   2.546   1.610   2.886  0.2350  1.4129  1.4829
  305UNL     CL 1695   2.935   2.883   3.388  0.2613 -0.0200 -0.4904
  305UNL      C 1696   3.047   3.011   3.366 -0.2832 -0.0949  0.3175
  305UNL    CL1 1697   2.963   3.169   3.405 -0.3558 -0.2296  0.3616
  305UNL    CL2 1698   3.176   2.979   3.480  0.0985 -0.3587  0.0189
  305UNL      H 1699   3.087   3.019   3.264 -1.1423  1.3882  0.0721
  306UNL     CL 1700   3.261   1.998   1.047  0.3948  0.5047 -0.1447
  306UNL      C 1701   3.350   1.856   0.988 -0.0366  0.6294  0.3419
  306UNL    CL1 1702   3.361   1.857   0.807  0.0473 -0.3231  0.4359
  306UNL    CL2 1703   3.524   1.856   1.049  0.1061  0.1897 -0.0227
  306UNL      H 1704   3.312   1.759   1.024 -0.6430  0.3612 -0.9513
  307UNL     CL 1705   0.122   0.229   3.348  0.3781  0.1841 -0.0942
  307UNL      C 1706   0.039   0.102   3.256  0.1862  0.1675  1.1952
  307UNL    CL1 1707  -0.146   0.120   3.263 -0.4712 -0.3744 -0.1843
  307UNL    CL2 1708   0.088   0.100   3.087 -0.0929 -0.4402 -0.5635
  307UNL      H 1709   0.063   0.009   3.309  2.0488  0.5833  1.1569
  308UNL     CL 1710   1.753   0.189   2.691  0.2983 -0.0040  0.0973
  308UNL      C 1711   1.883   0.311   2.706 -0.0477 -0.3274 -0.7410
  308UNL    CL1 1712   1.860   0.451   2.600  0.2757 -0.0770  0.1321
  308UNL    CL2 1713   1.892   0.371   2.867  0.0759  0.0977 -0.1719
  308UNL      H 1714   1.979   0.267   2.677  0.5297 -0.5017  1.2804
  309UNL     CL 1715   4.032   0.480   4.100  0.4226  0.0407  0.0245
  309UNL      C 1716   4.033   0.458   4.280 -0.5104 -0.7737 -0.1064
  309UNL    CL1 1717   4.039   0.612   4.356  0.3167 -0.2526  0.2931
  309UNL    CL2 1718   3.877   0.362   4.330  0.0489  0.1200  0.1344
  309UNL      H 1719   4.119   0.395   4.305 -1.4155 -2.1995 -0.4506
  310UNL     CL 1720   3.312   0.054   1.926  0.1640 -0.0152 -0.3757
  310UNL      C 1721   3.366   0.096   1.764  0.1684 -0.4402  0.3465
  310UNL    CL1 1722   3.538   0.056   1.736 -0.6165 -0.2656 -0.2360
  310UNL    CL2 1723   3.268   0.003   1.639  0.0816 -0.0684  0.3312
  310UNL      H 1724   3.353   0.204   1.753 -1.0181 -0.6410 -0.4474
  311UNL     CL 1725   1.462   3.629   0.520 -0.2325  0.1759 -0.1620
  311UNL      C 1726   1.388   3.784   0.502 -0.5984 -0.1748  0.4031
  311UNL    CL1 1727   1.297   3.819   0.646 -0.1774  0.3496 -0.2431
  311UNL    CL2 1728   1.528   3.910   0.472 -0.5955  0.1078 -0.2921
  311UNL      H 1729   1.314   3.776   0.421 -1.5896 -0.6985  1.3363
  312UNL     CL 1730   1.769   1.774   3.736 -0.1860 -0.6021 -0.2546
  312UNL      C 1731   1.704   1.942   3.767 -0.7606 -0.1522  0.3434
  312UNL    CL1 1732   1.628   1.993   3.618  0.1333 -0.1091  0.1311
  312UNL    CL2 1733   1.569   1.933   3.889 -0.4768  0.0759 -0.1097
  312UNL      H 1734   1.783   1.996   3.819 -0.9623 -1.6211  2.3104
  313UNL     CL 1735   3.864   0.301   3.810  0.0718 -0.2065 -0.2480
  313UNL      C 1736   3.992   0.297   3.680 -0.0787  0.2496  0.4631
  313UNL    CL1 1737   4.120   0.420   3.712 -0.1140  0.1140 -0.0648
  313UNL    CL2 1738   4.080   0.133   3.644  0.1039  0.1839 -0.2581
  313UNL      H 1739   3.952   0.320   3.580  0.3710  0.1559  0.2570
  314UNL     CL 1740   0.346   2.163   3.980 -0.0927 -0.1033 -0.4326
  314UNL      C 1741   0.350   1.989   3.931 -0.4135  0.1464 -0.2793
  314UNL    CL1 1742   0.206   1.895   3.994 -0.0347 -0.4254 -0.0609
  314UNL    CL2 1743   0.343   1.981   3.749 -0.1099  0.2298 -0.4279
  314UNL      H 1744   0.441   1.942   3.969 -0.4446 -0.2321 -0.6612
  315UNL     CL 1745   0.051   2.657   3.151 -0.0288 -0.5564  0.2377
  315UNL      C 1746  -0.040   2.571   3.272 -0.7805 -0.2343  0.0677
  315UNL    CL1 1747   0.039   2.420   3.319 -0.0663  0.2045 -0.5273
  315UNL    CL2 1748  -0.047   2.689   3.410 -0.4223 -0.3106 -0.1507
  315UNL      H 1749  -0.140   2.545   3.235 -0.4295 -1.6288  0.0391
  316UNL     CL 1750   1.659   2.912   2.616  0.0881 -0.0854  0.3119
  316UNL      C 1751   1.831   2.967   2.649 -0.0983  0.7013  0.3764
  316UNL    CL1 1752   1.848   3.144   2.646 -0.2265 -0.0515  0.2790
  316UNL    CL2 1753   1.879   2.909   2.809 -0.1157 -0.4124 -0.1287
  316UNL      H 1754   1.898   2.928   2.572 -1.1234 -2.0702  0.7574
  317UNL     CL 1755   1.370   3.654   0.182  0.0978  0.2494  0.3140
  317UNL      C 1756   1.538   3.670   0.107 -0.1939 -0.3734  0.2687
  317UNL    CL1 1757   1.538   3.818   0.005  0.2552  0.1568  0.2077
  317UNL    CL2 1758   1.663   3.680   0.242  0.2561 -0.3473 -0.2204
  317UNL      H 1759   1.557   3.581   0.046 -0.5648 -0.9823  1.0262
  318UNL     CL 1760   3.659   0.863   2.210  0.2157 -0.1619 -0.1316
  318UNL      C 1761   3.499   0.820   2.131 -1.1734 -0.3398 -0.0754
  318UNL    CL1 1762   3.511   0.658   2.064  0.0579  0.1229 -0.0647
  318UNL    CL2 1763   3.364   0.830   2.251 -0.0345 -0.5363  0.1626
  318UNL      H 1764   3.478   0.888   2.048 -0.2585  1.4980  1.1272
  319UNL     CL 1765   0.934   3.123   1.013 -0.1229  0.0777  0.3744
  319UNL      C 1766   0.785   3.132   1.113  0.5455 -0.1413 -0.1945
  319UNL    CL1 1767   0.650   3.056   1.023 -0.1258  0.3209 -0.5586
  319UNL    CL2 1768   0.806   3.027   1.263  0.1669 -0.3957 -0.0931
  319UNL      H 1769   0.766   3.238   1.134  0.1292 -0.1917 -0.3043
  320UNL     CL 1770   1.672   0.858   1.673 -0.0316  0.0889  0.2819
  320UNL      C 1771   1.848   0.890   1.661  0.0338 -0.3422  0.2033
  320UNL    CL1 1772   1.889   0.936   1.495 -0.0648 -0.2120  0.1010
  320UNL    CL2 1773   1.913   1.010   1.772 -0.0438  0.1711  0.4350
  320UNL      H 1774   1.899   0.794   1.672  1.7406  0.5107  0.1622
  321UNL     CL 1775   3.128   0.925   2.930  0.2637 -0.1549 -0.1714
  321UNL      C 1776   3.202   1.021   2.800  0.2242 -0.0272  0.4399
  321UNL    CL1 1777   3.276   1.175   2.851  0.1363  0.2553  0.1806
  321UNL    CL2 1778   3.330   0.912   2.733  0.0128 -0.2851 -0.0278
  321UNL      H 1779   3.129   1.049   2.723  0.2228 -0.0380  0.4374
  322UNL     CL 1780   1.192   1.811   0.054  0.2216  0.2465 -0.0448
  322UNL      C 1781   1.301   1.926  -0.039 -0.4737 -0.3946 -0.9666
  322UNL    CL1 1782   1.250   2.098  -0.012  0.1671  0.2320 -0.0099
  322UNL    CL2 1783   1.475   1.895   0.011  0.0333 -0.0899  0.2108
  322UNL      H 1784   1.281   1.896  -0.142 -2.5122  0.3844 -0.8564
  323UNL     CL 1785   3.801   3.072   1.256  0.2816  0.3130 -0.2402
  323UNL      C 1786   3.892   3.217   1.208 -0.5084  0.3584  0.0385
  323UNL    CL1 1787   3.962   3.287   1.361 -0.2878  0.3351  0.0474
  323UNL    CL2 1788   4.028   3.163   1.094 -0.0728  0.2454 -0.0969
  323UNL      H 1789   3.820   3.287   1.164 -0.5657  1.0467  1.1891
  324UNL     CL 1790   0.179   0.962   1.589  0.1591 -0.2877  0.2519
  324UNL      C 1791   0.168   0.875   1.746  0.1174  0.3864 -0.8257
  324UNL    CL1 1792  -0.009   0.857   1.792 -0.3558 -0.0165  0.4020
  324UNL    CL2 1793   0.249   0.713   1.740  0.2330 -0.1725 -0.4643
  324UNL      H 1794   0.219   0.945   1.813 -0.1879  0.5099 -0.7212
  325UNL     CL 1795   2.171   4.046   0.090  0.0775 -0.1049 -0.1277
  325UNL      C 1796   2.037   3.992   0.199 -0.1924 -0.4737 -0.5854
  325UNL    CL1 1797   2.066   3.819   0.256 -0.1532 -0.3730 -0.5080
  325UNL    CL2 1798   2.035   4.096   0.343 -0.0909 -0.0605 -0.0656
  325UNL      H 1799   1.948   4.002   0.136  1.0091  0.2102 -2.2416
  326UNL     CL 1800   2.950   3.871   0.659  0.2400 -0.0945 -0.2443
  326UNL      C 1801   2.933   4.045   0.704  0.2284 -0.1045 -0.1900
  326UNL    CL1 1802   2.758   4.062   0.764 -0.0299  0.2569  0.1264
  326UNL    CL2 1803   3.038   4.083   0.840  0.0285 -0.4520  0.1265
  326UNL      H 1804   2.953   4.107   0.616  0.8228 -0.3491 -0.2316
  327UNL     CL 1805   0.122   3.642   0.104  0.1488  0.3546  0.0584
  327UNL      C 1806   0.086   3.786  -0.005 -0.2410 -0.2745  0.0657
  327UNL    CL1 1807   0.090   3.936   0.090  0.4377  0.0540  0.0517
  327UNL    CL2 1808   0.221   3.796  -0.124 -0.0703 -0.0935  0.2220
  327UNL      H 1809  -0.010   3.763  -0.051  0.1249 -2.6042  0.3279
  328UNL     CL 1810   4.174   2.892   1.942  0.1579  0.5072  0.0725
  328UNL      C 1811   4.338   2.812   1.962  0.1285 -0.4775  0.1083
  328UNL    CL1 1812   4.470   2.931   1.928  0.6503 -0.3390 -0.3686
  328UNL    CL2 1813   4.367   2.740   2.120  0.3063 -0.0995 -0.2476
  328UNL      H 1814   4.343   2.730   1.890  0.6829 -0.4026  0.0528
  329UNL     CL 1815   3.912   1.996   0.803  0.1420  0.0188  0.0887
  329UNL      C 1816   3.795   2.083   0.897 -0.3903 -0.1314  0.0611
  329UNL    CL1 1817   3.863   2.205   1.007 -0.3175 -0.2622 -0.2925
  329UNL    CL2 1818   3.670   2.155   0.798  0.0844 -0.0254 -0.4206
  329UNL      H 1819   3.737   2.014   0.959  1.7422 -1.1395  1.0155
  330UNL     CL 1820   0.075   2.392   2.039 -0.1425 -0.1938 -0.0472
  330UNL      C 1821  -0.095   2.409   2.026  0.2808 -0.4817  0.5384
  330UNL    CL1 1822  -0.147   2.555   1.931 -0.0926  0.1929  0.0262
  330UNL    CL2 1823  -0.163   2.260   1.943 -0.3283 -0.0088 -0.2805
  330UNL      H 1824  -0.130   2.412   2.130 -1.0668 -1.8064  0.1648
  331UNL     CL 1825   3.591   0.988   1.840  0.1485 -0.0129  0.0565
  331UNL      C 1826   3.721   1.102   1.863 -0.5655  0.5290  0.1503
  331UNL    CL1 1827   3.751   1.195   1.717 -0.5387  0.0581  0.4316
  331UNL    CL2 1828   3.678   1.210   2.002 -0.2735 -0.3411 -0.2428
  331UNL      H 1829   3.809   1.041   1.888  0.5262  1.3179 -1.6472
  332UNL     CL 1830   0.276   1.267   4.071 -0.3493  0.0363 -0.4303
  332UNL      C 1831   0.309   1.102   4.141  0.5014 -0.2796 -0.6401
  332UNL    CL1 1832   0.436   1.029   4.036 -0.5304  0.5513  0.1486
  332UNL    CL2 1833   0.358   1.128   4.313  0.3667  0.5432  0.4270
  332UNL      H 1834   0.212   1.051   4.135  0.5608 -0.3316 -1.2789
  333UNL     CL 1835   2.569   1.264   2.688 -0.4023  0.0152  0.1787
  333UNL      C 1836   2.615   1.088   2.729  0.3077 -0.0490 -0.3751
  333UNL    CL1 1837   2.644   1.064   2.906  0.5251 -0.0438  0.0999
  333UNL    CL2 1838   2.490   0.975   2.670 -0.1627 -0.0438 -0.1034
  333UNL      H 1839   2.705   1.061   2.673  0.5813 -0.0270  0.0554
  334UNL     CL 1840   4.075   1.930   2.945  0.4591  0.0114 -0.1114
  334UNL      C 1841   3.956   1.912   2.808 -0.1507 -0.2658  0.2854
  334UNL    CL1 1842   3.977   2.035   2.688  0.3576 -0.3904  0.2609
  334UNL    CL2 1843   3.974   1.745   2.745  0.2452  0.4320  0.0526
  334UNL      H 1844   3.855   1.938   2.842 -0.7443 -1.4199 -0.5275
  335UNL     CL 1845   2.486   1.986   3.459  0.3165 -0.1899 -0.5502
  335UNL      C 1846   2.586   2.139   3.418  0.9629  0.5232  0.4071
  335UNL    CL1 1847   2.499   2.283   3.476 -0.4293  0.5680 -0.4074
  335UNL    CL2 1848   2.745   2.112   3.499 -0.0654 -0.0720  0.1011
  335UNL      H 1849   2.597   2.129   3.310 -0.2888 -2.2166  0.4687
  336UNL     CL 1850   0.531   4.143   0.640  0.1187 -0.3744  0.4385
  336UNL      C 1851   0.370   4.225   0.639  0.0535 -0.6376 -0.0480
  336UNL    CL1 1852   0.353   4.309   0.796  0.0507  0.4179 -0.0660
  336UNL    CL2 1853   0.366   4.332   0.498  0.2261 -0.1023 -0.1589
  336UNL      H 1854   0.290   4.151   0.629  0.4478 -0.8098 -2.2781
  337UNL     CL 1855   1.813   3.692   2.043 -0.2800 -0.1494 -0.1487
  337UNL      C 1856   1.686   3.572   1.985  0.6776  0.8470 -0.5976
  337UNL    CL1 1857   1.745   3.402   2.034  0.3354 -0.3781  0.2645
  337UNL    CL2 1858   1.530   3.600   2.064 -0.3284  0.2678  0.3838
  337UNL      H 1859   1.671   3.569   1.877  0.3684  1.4377 -0.5754
  338UNL     CL 1860   1.650   1.878   0.388  0.0313  0.1286  0.0720
  338UNL      C 1861   1.561   1.730   0.442  0.1338 -0.1267 -0.1296
  338UNL    CL1 1862   1.555   1.613   0.315 -0.1577  0.0044  0.1690
  338UNL    CL2 1863   1.640   1.676   0.594 -0.0456 -0.1004 -0.2081
  338UNL      H 1864   1.455   1.744   0.464 -0.2205 -1.7951 -0.6344
  339UNL     CL 1865   2.527   4.044   2.786  0.7018  0.4442  0.7036
  339UNL      C 1866   2.543   3.995   2.613  0.2745 -0.2668 -0.9636
  339UNL    CL1 1867   2.466   4.125   2.525  0.0019 -0.3233  0.0987
  339UNL    CL2 1868   2.712   3.993   2.572  0.1686 -0.0509 -0.2140
  339UNL      H 1869   2.493   3.901   2.589 -1.2895  0.6143 -1.3567
  340UNL     CL 1870   3.883   1.914   4.077 -0.4637 -0.0239 -0.2297
  340UNL      C 1871   3.780   1.938   4.215  0.5726 -0.9366  0.9686
  340UNL    CL1 1872   3.690   2.090   4.207 -0.1448  0.2925 -0.3720
  340UNL    CL2 1873   3.658   1.809   4.236 -0.1445  0.3195 -0.5037
  340UNL      H 1874   3.846   1.947   4.302  0.9326  2.8487  0.4642
  341UNL     CL 1875   2.839   0.590   1.383  0.1077  0.1981 -0.0581
  341UNL      C 1876   3.004   0.619   1.335 -0.4719  0.2460  0.9878
  341UNL    CL1 1877   3.084   0.732   1.457 -0.0406 -0.2345  0.2481
  341UNL    CL2 1878   3.074   0.461   1.343  0.0822  0.0193 -0.4884
  341UNL      H 1879   3.015   0.638   1.228 -0.3167 -0.4231  0.8843
  342UNL     CL 1880   2.729   0.754   1.839 -0.0628  0.1239 -0.1684
  342UNL      C 1881   2.798   0.657   1.704  0.2119 -0.0780 -0.1896
  342UNL    CL1 1882   2.956   0.582   1.753  0.4911 -0.1809  0.2031
  342UNL    CL2 1883   2.676   0.536   1.664 -0.2367  0.0654 -0.1075
  342UNL      H 1884   2.805   0.727   1.621 -1.1459 -2.0117 -2.0617
  343UNL     CL 1885   2.613   3.214   0.756  0.0649  0.2337  0.1129
  343UNL      C 1886   2.619   3.234   0.935 -0.0840  0.0010  0.5887
  343UNL    CL1 1887   2.449   3.231   1.000  0.0748  0.0949  0.9692
  343UNL    CL2 1888   2.711   3.107   1.009 -0.4396  0.0524  0.2008
  343UNL      H 1889   2.668   3.330   0.952  0.3371 -0.1725  0.3666
  344UNL     CL 1890   1.079   2.295   3.079 -0.3275 -0.3108  0.1056
  344UNL      C 1891   1.006   2.454   3.077  0.2218 -0.0693 -0.5962
  344UNL    CL1 1892   1.049   2.548   2.935 -0.0265  0.0781  0.2101
  344UNL    CL2 1893   0.832   2.431   3.081  0.0463  0.2122  0.0073
  344UNL      H 1894   1.043   2.506   3.167 -1.1305 -0.1269  0.0216
  345UNL     CL 1895   2.184   0.691   2.316 -0.1842 -0.2047  0.1341
  345UNL      C 1896   2.251   0.515   2.315  0.2122 -0.5280  0.7043
  345UNL    CL1 1897   2.273   0.438   2.150 -0.1685 -0.6541 -0.0566
  345UNL    CL2 1898   2.411   0.519   2.403  0.1340 -0.2173 -0.0171
  345UNL      H 1899   2.181   0.455   2.373 -1.0689  1.3435  1.1763
  346UNL     CL 1900   1.157   3.109   0.097 -0.4886 -0.5018 -0.1033
  346UNL      C 1901   1.158   3.232  -0.036 -0.8322  0.0631 -0.4712
  346UNL    CL1 1902   1.049   3.192  -0.175 -0.1618  0.3185 -0.8816
  346UNL    CL2 1903   1.116   3.392   0.026 -0.0544  0.1195  0.1536
  346UNL      H 1904   1.260   3.235  -0.076 -0.5180 -1.0403  0.1886
  347UNL     CL 1905   3.937   1.963   0.395  0.1416 -0.7884 -0.0289
  347UNL      C 1906   4.098   2.015   0.480  0.3234 -1.3914 -0.6675
  347UNL    CL1 1907   4.198   1.861   0.513  0.2742 -0.4308 -0.0095
  347UNL    CL2 1908   4.174   2.137   0.380 -0.4986  0.1007 -0.2277
  347UNL      H 1909   4.075   2.066   0.574  1.5365 -0.7788 -0.6943
  348UNL     CL 1910   4.179   2.388   0.168  0.4346  0.0352  0.0071
  348UNL      C 1911   4.233   2.357  -0.002 -0.0013  0.6976  0.1825
  348UNL    CL1 1912   4.397   2.428  -0.026  0.0906  0.7392  0.2627
  348UNL    CL2 1913   4.244   2.181  -0.037  0.0505  0.2025 -0.3601
  348UNL      H 1914   4.164   2.398  -0.078  0.1651 -0.4382 -0.6023
  349UNL     CL 1915   1.249   3.976   0.234  0.2964 -0.4376  0.4550
  349UNL      C 1916   1.146   4.002   0.077 -0.0333  0.8800 -0.3364
  349UNL    CL1 1917   1.243   3.979  -0.065 -0.1149 -0.6784 -0.1350
  349UNL    CL2 1918   1.011   3.880   0.075  0.2506  0.6069 -0.3713
  349UNL      H 1919   1.110   4.105   0.082  1.3151  1.3150  1.4541
  350UNL     CL 1920   4.019   2.638   0.697  0.2439 -0.4505  0.7774
  350UNL      C 1921   3.941   2.544   0.565  0.4221  0.2607 -0.1520
  350UNL    CL1 1922   3.971   2.369   0.584 -0.0607 -0.6623 -0.2431
  350UNL    CL2 1923   3.761   2.569   0.568 -0.3191 -0.0476 -0.1686
  350UNL      H 1924   3.972   2.585   0.469  0.2745  1.0116  0.1055
  351UNL     CL 1925   3.388   2.953   0.331 -0.4989  0.0155  0.2454
  351UNL      C 1926   3.536   2.862   0.389  0.0946  0.7500 -0.4023
  351UNL    CL1 1927   3.492   2.767   0.535 -0.0396  0.0298 -0.1987
  351UNL    CL2 1928   3.601   2.733   0.271 -0.1362  0.0505 -0.2861
  351UNL      H 1929   3.624   2.924   0.408  0.5161 -0.1921  0.8591
  352UNL     CL 1930   1.206   2.705   2.638 -0.0967  0.0764 -0.1931
  352UNL      C 1931   1.321   2.576   2.688 -0.3637  0.6706  0.4279
  352UNL    CL1 1932   1.233   2.407   2.670  0.6746  0.1360 -0.0628
  352UNL    CL2 1933   1.473   2.574   2.576 -0.2529  0.0102 -0.3851
  352UNL      H 1934   1.355   2.595   2.790 -1.2754  0.3117  0.8026
  353UNL     CL 1935   3.166   1.840   1.969  0.1063  0.1890  0.1935
  353UNL      C 1936   3.139   1.933   1.810 -0.0171  1.0974  0.7511
  353UNL    CL1 1937   3.142   1.810   1.685  0.1214  0.5549 -0.5061
  353UNL    CL2 1938   2.980   2.017   1.827 -0.1661 -0.0905 -0.2020
  353UNL      H 1939   3.220   2.002   1.784  0.6407  0.4329  0.9820
  354UNL     CL 1940   3.703   3.789   0.021 -0.1227 -0.0933 -0.3754
  354UNL      C 1941   3.819   3.690  -0.066  0.3678 -0.5270 -0.0810
  354UNL    CL1 1942   3.868   3.751  -0.227 -0.0789 -0.3106  0.3830
  354UNL    CL2 1943   3.962   3.686   0.039 -0.4051 -0.1373 -0.0404
  354UNL      H 1944   3.778   3.589  -0.074 -0.7406 -0.0348 -0.9797
  355UNL     CL 1945   0.824   3.974   0.864 -0.2354 -0.1937 -0.3912
  355UNL      C 1946   0.908   4.136   0.876  0.0070 -0.6324  0.1169
  355UNL    CL1 1947   1.006   4.173   0.728 -0.1516  0.1220 -0.0356
  355UNL    CL2 1948   0.790   4.264   0.897  0.3606 -0.2346 -0.4013
  355UNL      H 1949   0.975   4.134   0.963  0.4972 -0.3485 -0.2528
  356UNL     CL 1950   1.027   2.616   3.430  0.0790  0.2578  0.1035
  356UNL      C 1951   1.166   2.730   3.385  0.3461 -0.6436  0.3416
  356UNL    CL1 1952   1.222   2.696   3.213  0.3822  0.0641 -0.2426
  356UNL    CL2 1953   1.117   2.894   3.411 -0.0446 -0.1458 -0.2486
  356UNL      H 1954   1.245   2.706   3.457  0.2146  0.7168  0.9790
  357UNL     CL 1955   3.388   1.884   3.835  0.7276  0.7599 -0.2171
  357UNL      C 1956   3.379   1.996   3.985 -0.1741  0.4295  0.2635
  357UNL    CL1 1957   3.278   2.140   3.942  0.0809 -0.1014  0.2821
  357UNL    CL2 1958   3.331   1.910   4.129 -0.0562 -0.0421  0.0384
  357UNL      H 1959   3.478   2.037   4.006  0.2189  0.6859 -1.8852
  358UNL     CL 1960   0.184   3.501   1.093 -0.0628 -0.5759 -0.1691
  358UNL      C 1961   0.240   3.405   1.231 -0.0537  0.1675 -0.0311
  358UNL    CL1 1962   0.111   3.332   1.324  0.2847  0.2852  0.1840
  358UNL    CL2 1963   0.351   3.267   1.185  0.2250 -0.3251 -0.2665
  358UNL      H 1964   0.291   3.477   1.295  0.7500 -0.7824  0.4225
  359UNL     CL 1965   3.848   3.014   3.489 -0.3317 -0.1043 -0.1794
  359UNL      C 1966   3.935   3.053   3.647  0.9350  0.4656 -0.3509
  359UNL    CL1 1967   3.824   3.056   3.778 -0.2439 -0.0465 -0.5098
  359UNL    CL2 1968   4.061   2.919   3.680 -0.4076  0.3051  0.1812
  359UNL      H 1969   3.990   3.148   3.642  0.0314  1.0755  0.7525
  360UNL     CL 1970   3.052   2.029   2.864 -0.1767  0.2770  0.1377
  360UNL      C 1971   2.978   2.048   3.029 -0.0619 -0.1726  0.4225
  360UNL    CL1 1972   3.060   2.189   3.117 -0.0215 -0.2112  0.6200
  360UNL    CL2 1973   2.805   2.089   3.023 -0.1482 -0.3399 -0.1443
  360UNL      H 1974   2.998   1.956   3.083 -1.4772 -1.4561 -1.1080
  361UNL     CL 1975   4.180   0.375   2.614  0.1232 -0.2315 -0.2236
  361UNL      C 1976   4.337   0.297   2.589  0.2319  0.4318  0.0993
  361UNL    CL1 1977   4.308   0.129   2.554 -0.2797  0.1978  0.5045
  361UNL    CL2 1978   4.417   0.366   2.455  0.0472  0.6140  0.1590
  361UNL      H 1979   4.396   0.300   2.682 -1.5445  1.2149  1.2418
  362UNL     CL 1980   4.134   1.660   3.318 -0.0609 -0.1164 -0.1473
  362UNL      C 1981   3.963   1.642   3.302 -0.3329 -0.1553 -0.2858
  362UNL    CL1 1982   3.917   1.631   3.124 -0.2422 -0.4934 -0.1709
  362UNL    CL2 1983   3.909   1.500   3.404  0.5856 -0.5212  0.2208
  362UNL      H 1984   3.913   1.732   3.341  0.8168 -0.5037  2.1775
  363UNL     CL 1985   0.118   3.715   1.466 -0.2112  0.1143  0.1254
  363UNL      C 1986   0.036   3.753   1.620  0.2196 -1.1136  0.4093
  363UNL    CL1 1987  -0.134   3.784   1.587 -0.0226 -0.4240 -0.0541
  363UNL    CL2 1988   0.053   3.614   1.734  0.1121  0.0777  0.3318
  363UNL      H 1989   0.080   3.844   1.661  0.1330 -0.3241 -1.1498
  364UNL     CL 1990   0.531   3.761   2.142  0.1780  0.3958  0.1461
  364UNL      C 1991   0.454   3.781   2.302 -0.6558  0.4648 -0.0373
  364UNL    CL1 1992   0.382   3.628   2.361  0.1200  0.0361  0.1529
  364UNL    CL2 1993   0.579   3.826   2.433  0.2258  0.1842 -0.0069
  364UNL      H 1994   0.377   3.859   2.291 -0.9972 -0.0387 -1.4826
  365UNL     CL 1995   0.599   1.611   1.689 -0.0691 -0.1442 -0.1517
  365UNL      C 1996   0.417   1.590   1.676 -0.5620  1.1589 -0.3857
  365UNL    CL1 1997   0.374   1.509   1.523 -0.1232 -0.3220  0.2857
  365UNL    CL2 1998   0.348   1.498   1.818  0.0716 -0.1280 -0.0694
  365UNL      H 1999   0.377   1.692   1.683 -2.1418  0.6613 -1.5348
  366UNL     CL 2000   3.700   0.643   0.623 -0.0619 -0.4105  0.0870
  366UNL      C 2001   3.771   0.586   0.473  0.4346  0.4346 -0.1026
  366UNL    CL1 2002   3.717   0.694   0.322  0.0165 -0.1845  0.4853
  366UNL    CL2 2003   3.951   0.584   0.492  0.2481  0.1976  0.1427
  366UNL      H 2004   3.753   0.479   0.458 -1.2696  0.0440  3.6345
  367UNL     CL 2005   1.163   3.982   2.829  0.2018 -0.3134  0.3013
  367UNL      C 2006   1.186   3.809   2.847  0.4663  0.2689  0.6176
  367UNL    CL1 2007   1.088   3.717   2.731 -0.0135  0.1941  0.3434
  367UNL    CL2 2008   1.358   3.773   2.827 -0.3213 -0.1337  0.0419
  367UNL      H 2009   1.161   3.763   2.944 -0.6534 -1.7031 -0.5507
  368UNL     CL 2010   3.054   0.957   1.688  0.3470  0.1951 -0.0654
  368UNL      C 2011   3.232   0.979   1.719  0.3682  0.5833  0.1285
  368UNL    CL1 2012   3.282   1.140   1.690  0.2638 -0.2200 -0.5435
  368UNL    CL2 2013   3.257   0.927   1.889  0.1292  0.0552 -0.1746
  368UNL      H 2014   3.293   0.915   1.653 -0.2790  1.7715 -1.6924
  369UNL     CL 2015   3.776   1.357   0.284  0.3170 -0.2972  0.3008
  369UNL      C 2016   3.702   1.521   0.245  0.6199  0.7440 -0.6289
  369UNL    CL1 2017   3.542   1.536   0.327  0.2002 -0.0455  0.1918
  369UNL    CL2 2018   3.817   1.650   0.295 -0.2322 -0.1821 -0.2550
  369UNL      H 2019   3.679   1.518   0.138 -1.7027  0.0832 -0.1490
  370UNL     CL 2020   3.485   1.860   1.546 -0.2359  0.0103 -0.2227
  370UNL      C 2021   3.394   1.952   1.426  0.6280 -0.0878  0.5933
  370UNL    CL1 2022   3.248   1.858   1.360  0.3374  0.0088 -0.5302
  370UNL    CL2 2023   3.351   2.116   1.491  0.3382  0.1021 -0.2546
  370UNL      H 2024   3.462   1.969   1.342 -0.7110 -0.6159 -0.6502
  371UNL     CL 2025   0.899   1.563   3.462  0.1358  0.1032  0.0326
  371UNL      C 2026   0.978   1.404   3.425 -0.3330 -0.3263  0.5701
  371UNL    CL1 2027   0.866   1.272   3.475 -0.1988 -0.1778 -0.4398
  371UNL    CL2 2028   1.006   1.399   3.248  0.2509 -0.0924 -0.1718
  371UNL      H 2029   1.076   1.404   3.475 -1.0669  1.8946  2.2134
  372UNL     CL 2030   1.821   1.428   1.501 -0.1726  0.4029  0.1820
  372UNL      C 2031   1.795   1.597   1.538 -0.1854 -0.4564  0.0205
  372UNL    CL1 2032   1.921   1.666   1.653 -0.0535  0.2614 -0.3478
  372UNL    CL2 2033   1.794   1.681   1.379  0.5329  0.3623  0.3065
  372UNL      H 2034   1.692   1.617   1.569 -0.4179 -0.3804 -0.7615
  373UNL     CL 2035   1.216   2.053   1.833 -0.5038 -0.1452  0.4583
  373UNL      C 2036   1.351   2.166   1.761 -0.2238  0.6668 -0.1079
  373UNL    CL1 2037   1.358   2.323   1.840 -0.1578  0.2295  0.0155
  373UNL    CL2 2038   1.511   2.073   1.757 -0.0558  0.0540 -0.2964
  373UNL      H 2039   1.324   2.193   1.659 -2.1627  0.9302  0.4271
  374UNL     CL 2040   1.956   0.266   1.225 -0.0652 -0.2702 -0.1646
  374UNL      C 2041   2.078   0.212   1.109 -0.3906 -0.1895 -0.0308
  374UNL    CL1 2042   2.066   0.031   1.084 -0.3983 -0.2491  0.1084
  374UNL    CL2 2043   2.066   0.303   0.948  0.0455 -0.1322 -0.1682
  374UNL      H 2044   2.182   0.226   1.141  0.4708 -0.0300 -2.7267
  375UNL     CL 2045   0.936   3.244   0.657  0.2534 -0.1709 -0.2578
  375UNL      C 2046   0.790   3.227   0.550 -0.0332 -0.1724 -0.0102
  375UNL    CL1 2047   0.688   3.368   0.536 -0.3003 -0.0608 -0.1407
  375UNL    CL2 2048   0.858   3.180   0.384 -0.3587  0.3287 -0.0167
  375UNL      H 2049   0.733   3.145   0.593  1.3277 -0.7575  0.7457
  376UNL     CL 2050   1.897   0.305   3.204  0.0475  0.1777 -0.2383
  376UNL      C 2051   1.756   0.410   3.241 -0.9280 -0.2986 -0.2581
  376UNL    CL1 2052   1.775   0.570   3.160  0.0056 -0.4414  0.4788
  376UNL    CL2 2053   1.607   0.320   3.191  0.1949 -0.3242 -0.1575
  376UNL      H 2054   1.750   0.439   3.346  0.1249  1.9303 -0.7442
  377UNL     CL 2055   0.935   0.080   2.889  0.2711 -0.1314  0.2095
  377UNL      C 2056   0.973   0.068   3.070  0.0853  0.1926  0.5801
  377UNL    CL1 2057   1.119   0.155   3.112 -0.0171 -0.0638  0.3131
  377UNL    CL2 2058   0.822   0.117   3.151 -0.2789  0.7364  0.1640
  377UNL      H 2059   0.992  -0.035   3.102 -1.4470  0.3743  2.3057
  378UNL     CL 2060   3.802   0.371   3.094  0.1635 -0.2571  0.4203
  378UNL      C 2061   3.929   0.492   3.063  0.0515  0.1682  0.0619
  378UNL    CL1 2062   4.082   0.449   3.148 -0.0693 -0.2600 -0.0203
  378UNL    CL2 2063   3.954   0.530   2.888 -0.5831  0.2352  0.2822
  378UNL      H 2064   3.887   0.585   3.104 -2.0797 -0.7598  0.1270
  379UNL     CL 2065   1.463   3.214   3.660  0.1273  0.2601  0.3281
  379UNL      C 2066   1.404   3.349   3.769 -0.5251 -0.1606 -0.2420
  379UNL    CL1 2067   1.226   3.365   3.764 -0.3506  0.3083 -0.0001
  379UNL    CL2 2068   1.461   3.320   3.948  0.4679 -0.2982  0.0439
  379UNL      H 2069   1.453   3.438   3.726 -1.8141 -0.2600 -2.0172
  380UNL     CL 2070   2.051   3.611   2.240  0.1058 -0.1065 -0.1218
  380UNL      C 2071   1.961   3.638   2.402 -0.3066  0.0148  0.0207
  380UNL    CL1 2072   1.881   3.484   2.455  0.2314 -0.2987  0.4184
  380UNL    CL2 2073   2.055   3.716   2.540 -0.0099 -0.3384  0.4136
  380UNL      H 2074   1.885   3.714   2.383  0.1222  0.1219 -1.3778
  381UNL     CL 2075   3.128   0.140   0.003 -0.1113 -0.2194 -0.5425
  381UNL      C 2076   3.109   0.207  -0.165  0.2450 -0.4007 -0.8167
  381UNL    CL1 2077   3.011   0.084  -0.257  0.6917 -0.1677 -0.6018
  381UNL    CL2 2078   3.036   0.375  -0.166  0.1471 -0.1611  0.3543
  381UNL      H 2079   3.208   0.226  -0.209 -0.0647  2.0577 -0.5633
  382UNL     CL 2080   1.149   3.140   2.532 -0.1209  0.3343  0.5899
  382UNL      C 2081   0.998   3.218   2.602  0.2603  0.4585  0.1491
  382UNL    CL1 2082   0.882   3.254   2.476 -0.0380 -0.2157 -0.0177
  382UNL    CL2 2083   0.926   3.110   2.717 -0.0024  0.2103 -0.2031
  382UNL      H 2084   1.030   3.308   2.657  4.0628 -0.6771  0.0864
  383UNL     CL 2085   1.953   1.351   2.134 -0.0407 -0.0566 -0.2808
  383UNL      C 2086   1.850   1.239   2.228 -0.7180  0.1052 -0.4835
  383UNL    CL1 2087   1.941   1.083   2.249 -0.2357 -0.2831 -0.2838
  383UNL    CL2 2088   1.792   1.307   2.385  0.1267  0.0907  0.1950
  383UNL      H 2089   1.759   1.227   2.169 -2.6489  0.1363  2.2834
  384UNL     CL 2090   1.303   2.677   0.764 -0.4599 -0.2470  0.3339
  384UNL      C 2091   1.152   2.758   0.819 -0.1534 -1.0536  0.6302
  384UNL    CL1 2092   1.015   2.652   0.777  0.2801  0.0035  0.0881
  384UNL    CL2 2093   1.159   2.783   0.997  0.7202 -0.2636 -0.1572
  384UNL      H 2094   1.149   2.852   0.764  0.8003 -0.6762  1.2053
  385UNL     CL 2095   2.696   2.745   4.149 -0.3140  0.0599  0.4514
  385UNL      C 2096   2.556   2.743   4.266  0.7785 -0.1681 -0.0190
  385UNL    CL1 2097   2.500   2.915   4.292  0.4113 -0.1927  0.2784
  385UNL    CL2 2098   2.424   2.629   4.196 -0.2740 -0.0339 -0.1495
  385UNL      H 2099   2.593   2.693   4.356 -0.0396  1.5135  1.3141
  386UNL     CL 2100   0.954   3.411   3.477  0.7593 -0.0483 -0.2898
  386UNL      C 2101   0.922   3.335   3.322  0.2712  0.4192  0.1186
  386UNL    CL1 2102   0.928   3.456   3.179 -0.0477  0.3351  0.0911
  386UNL    CL2 2103   1.051   3.208   3.291  0.3385  0.3108 -0.0041
  386UNL      H 2104   0.825   3.285   3.322 -0.6559  2.1342 -1.2471
  387UNL     CL 2105   0.343   2.674   0.125  0.1813 -0.2503 -0.5038
  387UNL      C 2106   0.271   2.737   0.271  0.2707 -0.1450  0.2259
  387UNL    CL1 2107   0.322   2.911   0.297 -0.1654  0.2163 -0.2341
  387UNL    CL2 2108   0.087   2.739   0.261  0.1145 -0.2758  0.1568
  387UNL      H 2109   0.300   2.679   0.360  2.1078 -1.2746 -1.0409
  388UNL     CL 2110   0.067   3.400   3.514  0.0953  0.1468  0.0394
  388UNL      C 2111  -0.031   3.305   3.391  0.1932  0.7243  0.0839
  388UNL    CL1 2112  -0.003   3.125   3.422 -0.1108 -0.1605  0.5807
  388UNL    CL2 2113  -0.203   3.345   3.381  0.1308 -0.0036 -0.1690
  388UNL      H 2114   0.009   3.318   3.289 -1.3078  0.3789 -0.5776
  389UNL     CL 2115   0.302   3.461   3.247  0.2455  0.2902  0.3991
  389UNL      C 2116   0.436   3.574   3.293  0.3827  0.7050  0.6202
  389UNL    CL1 2117   0.571   3.486   3.368 -0.0860 -0.1209 -0.2666
  389UNL    CL2 2118   0.502   3.670   3.151  0.3762 -0.2760  0.0121
  389UNL      H 2119   0.394   3.646   3.364 -0.1516 -0.7926  1.8873
  390UNL     CL 2120   2.577   0.260   1.258  0.4664  0.1536  0.1378
  390UNL      C 2121   2.485   0.199   1.399  0.3001  0.2125  0.6882
  390UNL    CL1 2122   2.309   0.197   1.366  0.1559  0.2285  0.3405
  390UNL    CL2 2123   2.541   0.038   1.465 -0.3809 -0.1136  0.0830
  390UNL      H 2124   2.499   0.278   1.474 -0.7381  0.5873  0.4978
  391UNL     CL 2125   2.716   1.725   3.350  0.4593  0.2354 -0.2255
  391UNL      C 2126   2.705   1.605   3.470  0.1396  0.2311 -0.1080
  391UNL    CL1 2127   2.576   1.488   3.420 -0.1062  0.1294  0.1719
  391UNL    CL2 2128   2.871   1.513   3.484 -0.0936  0.2613 -0.0309
  391UNL      H 2129   2.670   1.656   3.561  0.5798  2.6488 -1.1989
  392UNL     CL 2130   1.651   0.526   4.047 -0.2989 -0.0754  0.1465
  392UNL      C 2131   1.691   0.586   3.883 -0.0900  0.0993  1.1575
  392UNL    CL1 2132   1.641   0.489   3.736 -0.1442  0.4348 -0.0523
  392UNL    CL2 2133   1.609   0.744   3.864  0.2183 -0.3161 -0.1378
  392UNL      H 2134   1.800   0.594   3.879  0.0586 -1.7840  0.6048
  393UNL     CL 2135   1.861   2.856   3.184 -0.0352  0.3378 -0.1416
  393UNL      C 2136   1.998   2.963   3.162 -0.5015 -0.5752 -0.2931
  393UNL    CL1 2137   1.931   3.118   3.095 -0.1429 -0.4692 -0.1135
  393UNL    CL2 2138   2.094   2.995   3.315  0.0434 -0.2537  0.1769
  393UNL      H 2139   2.065   2.915   3.090 -1.2420 -2.5420  0.2821
  394UNL     CL 2140   3.757   1.469   2.233 -0.5207 -0.5654 -0.1252
  394UNL      C 2141   3.932   1.458   2.271 -0.3102  0.6837 -0.1563
  394UNL    CL1 2142   3.977   1.500   2.434  0.5548 -0.1906  0.0946
  394UNL    CL2 2143   3.975   1.282   2.250 -0.0124 -0.2625 -0.2831
  394UNL      H 2144   4.004   1.516   2.211  1.1699  0.2739  1.1472
  395UNL     CL 2145   2.215   0.106   3.622 -0.0050  0.3994  0.3773
  395UNL      C 2146   2.062   0.115   3.515 -0.3688  0.0397 -0.1519
  395UNL    CL1 2147   1.947  -0.012   3.560 -0.1396  0.0653 -0.2234
  395UNL    CL2 2148   1.982   0.273   3.542  0.0310  0.0351  0.0974
  395UNL      H 2149   2.099   0.115   3.412  1.5144  0.0893  0.4867
  396UNL     CL 2150   1.398   3.658   2.506 -0.4237  0.2795  0.2914
  396UNL      C 2151   1.500   3.810   2.504  0.0295  0.3872 -0.5662
  396UNL    CL1 2152   1.630   3.778   2.393 -0.0769  0.4466 -0.0818
  396UNL    CL2 2153   1.410   3.967   2.471  0.4048  0.3721 -0.3416
  396UNL      H 2154   1.537   3.815   2.607 -0.7558 -0.0213 -0.2542
  397UNL     CL 2155   3.627   3.321   0.429  0.2561 -0.4750  0.3292
  397UNL      C 2156   3.746   3.383   0.306  0.5852 -0.0855 -0.5163
  397UNL    CL1 2157   3.657   3.478   0.188 -0.3132 -0.1440  0.0924
  397UNL    CL2 2158   3.876   3.485   0.377 -0.0529 -0.0382 -0.1475
  397UNL      H 2159   3.792   3.297   0.256  1.9982  2.0574 -3.1587
  398UNL     CL 2160   2.347   0.472   3.573  0.0750  0.1445  0.0280
  398UNL      C 2161   2.369   0.639   3.505  0.2476 -0.0915  0.0565
  398UNL    CL1 2162   2.249   0.662   3.375 -0.0190 -0.0632  0.2822
  398UNL    CL2 2163   2.335   0.763   3.628  0.2412  0.1105 -0.1486
  398UNL      H 2164   2.469   0.640   3.460 -0.4839  0.6646 -1.6519
  399UNL     CL 2165   1.933   3.736   0.966  0.0629  0.0420  0.1155
  399UNL      C 2166   2.083   3.637   1.000 -0.5620 -0.7250 -0.6930
  399UNL    CL1 2167   2.232   3.736   0.940  0.3141 -0.1950  0.4178
  399UNL    CL2 2168   2.111   3.591   1.168 -0.0337  0.1757  0.2972
  399UNL      H 2169   2.079   3.548   0.937  0.3142 -0.2765 -1.4176
  400UNL     CL 2170   3.429   0.442   1.086  0.0233 -0.4689  0.0610
  400UNL      C 2171   3.402   0.285   1.168  0.0636  0.1161  0.6900
  400UNL    CL1 2172   3.301   0.186   1.059  0.3399 -0.0873  0.3006
  400UNL    CL2 2173   3.549   0.186   1.197  0.0949  0.3603  0.4843
  400UNL      H 2174   3.345   0.311   1.257 -2.2791  0.5831 -0.8567
  401UNL     CL 2175   2.393   0.509   0.214  0.4294 -0.2280 -0.0701
  401UNL      C 2176   2.245   0.410   0.196 -0.3457  0.1596 -0.0281
  401UNL    CL1 2177   2.286   0.239   0.214  0.4331 -0.6305 -0.0894
  401UNL    CL2 2178   2.117   0.471   0.316  0.1021  0.0576  0.0609
  401UNL      H 2179   2.215   0.416   0.091 -2.7086  1.1184  0.6345
  402UNL     CL 2180   1.079   1.638   2.829 -0.1802 -0.2687 -0.1344
  402UNL      C 2181   0.972   1.775   2.881 -0.2093  0.0642 -0.8765
  402UNL    CL1 2182   0.916   1.851   2.737  0.2873  0.0788 -0.4439
  402UNL    CL2 2183   0.839   1.708   2.980 -0.3453  0.0156 -0.2742
  402UNL      H 2184   1.028   1.847   2.941 -0.7122 -2.9002  3.5651
  403UNL     CL 2185   1.735   3.195   0.431  0.1439 -0.6682 -0.0964
  403UNL      C 2186   1.563   3.147   0.401  0.5288 -0.1891 -0.1919
  403UNL    CL1 2187   1.456   3.168   0.536  0.5652 -0.3962  0.4050
  403UNL    CL2 2188   1.487   3.246   0.278 -0.0973  0.2250  0.2665
  403UNL      H 2189   1.556   3.042   0.371 -1.5899 -0.4880  1.2286
  404UNL     CL 2190   1.039   0.334   1.762  0.3672 -0.1568 -0.0620
  404UNL      C 2191   1.090   0.163   1.781 -0.5723 -0.4830  0.3681
  404UNL    CL1 2192   1.263   0.139   1.739 -0.2399 -0.1986  0.0553
  404UNL    CL2 2193   1.041   0.088   1.943  0.4626  0.2917  0.0274
  404UNL      H 2194   1.028   0.103   1.714 -0.2281 -2.0676  1.4240
  405UNL     CL 2195   0.709   3.448   0.169  0.1208 -0.0771 -0.0216
  405UNL      C 2196   0.528   3.465   0.183  0.0501 -0.0281  0.0221
  405UNL    CL1 2197   0.444   3.471   0.014  0.1596 -0.1558 -0.3402
  405UNL    CL2 2198   0.458   3.326   0.287 -0.2195  0.3346 -0.1124
  405UNL      H 2199   0.518   3.562   0.232  1.2414  0.0374  0.1706
  406UNL     CL 2200   3.075   3.209   0.147 -0.0122  0.2632 -0.5453
  406UNL      C 2201   2.906   3.248   0.081 -0.7799  0.2284  0.3047
  406UNL    CL1 2202   2.894   3.429   0.037  0.2895  0.3567 -0.1363
  406UNL    CL2 2203   2.889   3.146  -0.066  0.2326 -0.1181  0.1151
  406UNL      H 2204   2.829   3.218   0.153 -0.9193 -1.7986 -0.6199
  407UNL     CL 2205   1.145   0.413   2.078  0.1622  0.1875  0.0248
  407UNL      C 2206   1.165   0.577   2.029  1.2173 -0.5104 -0.3337
  407UNL    CL1 2207   1.041   0.683   2.112 -0.1113 -0.0396  0.3874
  407UNL    CL2 2208   1.330   0.638   2.054  0.0570  0.0473 -0.0135
  407UNL      H 2209   1.141   0.589   1.923  0.9173 -0.1429 -0.2254
  408UNL     CL 2210   1.987   2.008   2.999  0.2877 -0.7956 -0.4014
  408UNL      C 2211   1.941   1.939   2.837 -0.4130 -0.9074  0.4631
  408UNL    CL1 2212   1.899   1.768   2.856  0.3145 -0.2299 -0.0958
  408UNL    CL2 2213   1.797   2.014   2.761 -0.3662 -0.4593 -0.0356
  408UNL      H 2214   2.019   1.948   2.760 -0.4370 -2.8728  0.1349
  409UNL     CL 2215   2.846   2.530   0.918 -0.1206  0.3762  0.0516
  409UNL      C 2216   2.825   2.645   1.046 -0.7652  0.0297  0.2059
  409UNL    CL1 2217   2.701   2.771   0.996 -0.1703 -0.2601 -0.3984
  409UNL    CL2 2218   2.769   2.550   1.183 -0.4070  0.0437  0.1582
  409UNL      H 2219   2.923   2.687   1.072 -0.4241  0.0604 -1.0321
  410UNL     CL 2220   3.566   3.237   4.131  0.1181  0.2757  0.0228
  410UNL      C 2221   3.526   3.094   4.225  0.5854  0.4536  0.1183
  410UNL    CL1 2222   3.371   3.032   4.174 -0.3106  0.0823 -0.1943
  410UNL    CL2 2223   3.655   2.963   4.211  0.2605 -0.1732 -0.2458
  410UNL      H 2224   3.517   3.113   4.332  0.8310 -1.9754  0.6201
  411UNL     CL 2225   1.471   3.810   3.730 -0.4490  0.2944  0.3225
  411UNL      C 2226   1.335   3.832   3.842  0.5925  0.2435  0.2855
  411UNL    CL1 2227   1.194   3.870   3.731 -0.1643 -0.0070 -0.0513
  411UNL    CL2 2228   1.293   3.679   3.926 -0.3671 -0.0643 -0.0558
  411UNL      H 2229   1.353   3.909   3.918 -0.2968  1.3361 -0.5723
  412UNL     CL 2230   4.019   3.305   4.073  0.2687 -0.0560 -0.1258
  412UNL      C 2231   4.059   3.203   4.217 -0.0719 -0.3530  0.2347
  412UNL    CL1 2232   3.914   3.163   4.312  0.5665  0.2292  0.0020
  412UNL    CL2 2233   4.129   3.049   4.167  0.2251  0.2210  0.1017
  412UNL      H 2234   4.142   3.249   4.271 -1.3015  0.4113  1.5358
  413UNL     CL 2235   0.968   3.914   3.177  0.5679  0.0345 -0.1293
  413UNL      C 2236   1.070   3.871   3.315  0.1558  0.1054 -0.1192
  413UNL    CL1 2237   1.216   3.782   3.244  0.4411  0.1011  0.3004
  413UNL    CL2 2238   1.133   4.015   3.399  0.2600  0.2533  0.1970
  413UNL      H 2239   1.002   3.814   3.379 -1.8662 -0.8036 -2.8653
  414UNL     CL 2240   0.307   2.361   0.453  0.0421 -0.6406 -0.2635
  414UNL      C 2241   0.357   2.221   0.354 -0.0650  0.0271 -0.7161
  414UNL    CL1 2242   0.458   2.280   0.230  0.1653  0.1876 -0.0012
  414UNL    CL2 2243   0.436   2.080   0.438 -0.4485  0.0651 -0.2031
  414UNL      H 2244   0.272   2.175   0.302  1.8816 -4.0760 -0.6449
  415UNL     CL 2245   1.209   2.201   3.856  0.1584 -0.3533 -0.0534
  415UNL      C 2246   1.265   2.304   3.730 -0.5255 -0.3860 -0.1300
  415UNL    CL1 2247   1.372   2.204   3.619 -0.2072  0.0602  0.0303
  415UNL    CL2 2248   1.121   2.351   3.637 -0.4427  0.5995  0.0524
  415UNL      H 2249   1.321   2.389   3.768  1.2590 -1.6386  0.1491
  416UNL     CL 2250   1.387   3.304   3.263  0.3437  0.1323 -0.0664
  416UNL      C 2251   1.359   3.482   3.258 -0.3462  0.0460 -0.0037
  416UNL    CL1 2252   1.408   3.546   3.419 -0.2704 -0.0118 -0.0399
  416UNL    CL2 2253   1.457   3.560   3.128 -0.2350 -0.0609  0.2448
  416UNL      H 2254   1.252   3.492   3.239 -1.1313  1.6010  4.1851
  417UNL     CL 2255   1.712   2.115   0.701  0.0345  0.3787  0.4920
  417UNL      C 2256   1.849   2.241   0.684  0.2400 -0.0841  0.6235
  417UNL    CL1 2257   1.905   2.263   0.509  0.2643 -0.2702  0.0380
  417UNL    CL2 2258   1.793   2.401   0.747  0.2511 -0.2547 -0.0416
  417UNL      H 2259   1.940   2.210   0.736  0.0198 -0.2375  0.9223
  418UNL     CL 2260   4.093   1.500   0.479  0.1017  0.7094  0.6647
  418UNL      C 2261   4.251   1.527   0.536  0.8260 -0.6810  0.2963
  418UNL    CL1 2262   4.257   1.502   0.708  0.3699 -0.2169  0.1714
  418UNL    CL2 2263   4.362   1.408   0.448  0.0077 -0.1217 -0.5886
  418UNL      H 2264   4.282   1.628   0.508  0.2967 -0.5034  0.3393
  419UNL     CL 2265   1.622   3.993   0.868 -0.0660  0.2701 -0.2508
  419UNL      C 2266   1.752   4.090   0.939 -0.0542 -0.4339 -0.6555
  419UNL    CL1 2267   1.712   4.265   0.903 -0.2986  0.0340 -0.7942
  419UNL    CL2 2268   1.750   4.056   1.118 -0.3083 -0.1479  0.2111
  419UNL      H 2269   1.849   4.062   0.896  0.2008 -2.3889  1.0064
  420UNL     CL 2270   1.730   2.808   1.122 -0.1408 -0.0330  0.0047
  420UNL      C 2271   1.662   2.818   1.284  0.5097 -0.4009 -0.0999
  420UNL    CL1 2272   1.535   2.692   1.301  0.6904  0.3485 -0.2772
  420UNL    CL2 2273   1.783   2.806   1.417  0.5497 -0.3624 -0.0043
  420UNL      H 2274   1.607   2.912   1.297 -0.2473 -0.6873 -1.1113
  421UNL     CL 2275   2.368   3.275   3.588 -0.3671 -0.2357  0.1354
  421UNL      C 2276   2.287   3.376   3.459 -0.0587  1.1903 -0.3611
  421UNL    CL1 2277   2.331   3.551   3.472 -0.0154 -0.0936 -0.1533
  421UNL    CL2 2278   2.351   3.316   3.298 -0.0243 -0.2153  0.1549
  421UNL      H 2279   2.179   3.354   3.455 -0.0185  0.8334  0.4747
  422UNL     CL 2280   1.946   3.254   0.162  0.2590 -0.4608 -0.0658
  422UNL      C 2281   1.910   3.384   0.043  0.7170 -0.9815 -0.5713
  422UNL    CL1 2282   1.755   3.346  -0.041 -0.3608  0.1783  0.0807
  422UNL    CL2 2283   1.923   3.537   0.114 -0.1771  0.2379 -0.5279
  422UNL      H 2284   1.991   3.386  -0.031 -0.1054 -0.9265 -1.4855
  423UNL     CL 2285   2.824   0.848   3.451  0.1223 -0.4645 -0.3117
  423UNL      C 2286   2.719   0.883   3.592 -0.2498 -0.0078  0.0609
  423UNL    CL1 2287   2.674   0.725   3.670 -0.1493  0.1023  0.0088
  423UNL    CL2 2288   2.788   0.989   3.704 -0.2830 -0.5832 -0.4467
  423UNL      H 2289   2.632   0.938   3.555 -0.7122 -0.8418 -0.1172
  424UNL     CL 2290   2.718   3.545   3.490 -0.0648  0.2659 -0.0870
  424UNL      C 2291   2.875   3.627   3.497  0.3395  0.6488 -0.2573
  424UNL    CL1 2292   2.997   3.543   3.398  0.0421  0.4765  0.0159
  424UNL    CL2 2293   2.856   3.788   3.429  0.2990  0.3588  0.0459
  424UNL      H 2294   2.909   3.639   3.601  2.8918  0.7791 -1.0308
  425UNL     CL 2295   1.387   3.091   1.088  0.6509  0.2896 -0.2311
  425UNL      C 2296   1.486   3.096   0.939  0.1294  0.0737 -0.2956
  425UNL    CL1 2297   1.641   3.184   0.969 -0.0684 -0.5046  0.1863
  425UNL    CL2 2298   1.513   2.933   0.892  0.4404 -0.2649 -0.2351
  425UNL      H 2299   1.435   3.145   0.855  1.7039  2.0606 -0.1624
  426UNL     CL 2300   3.841   3.859   0.381  0.3726 -0.3672  0.0356
  426UNL      C 2301   3.755   3.886   0.543  0.2541  0.2926 -0.4258
  426UNL    CL1 2302   3.802   3.769   0.675  0.5101  0.3020 -0.0557
  426UNL    CL2 2303   3.784   4.059   0.597  0.0299 -0.1222 -0.0474
  426UNL      H 2304   3.651   3.875   0.512  0.6985  0.2833 -2.0515
  427UNL     CL 2305   1.555   0.457   2.251  0.1891  0.1480 -0.1559
  427UNL      C 2306   1.725   0.495   2.197  0.1568  0.6419 -0.2004
  427UNL    CL1 2307   1.787   0.653   2.271 -0.1280 -0.5819  0.1955
  427UNL    CL2 2308   1.840   0.368   2.262 -0.2045  0.0435  0.1823
  427UNL      H 2309   1.721   0.496   2.087  0.6071  0.5070 -0.2210
  428UNL     CL 2310   0.061   3.501   2.455 -0.2367  0.0260  0.0347
  428UNL      C 2311  -0.108   3.548   2.497 -0.0645  0.2082 -0.5402
  428UNL    CL1 2312  -0.098   3.630   2.664  0.1951  0.0131  0.0819
  428UNL    CL2 2313  -0.173   3.674   2.375 -0.0343  0.0506  0.7492
  428UNL      H 2314  -0.172   3.460   2.505  2.6849 -1.8708  0.3409
  429UNL     CL 2315   2.176   3.819   1.578  0.3307  0.3693  0.2214
  429UNL      C 2316   2.074   3.942   1.485  0.1749  0.3881 -0.0586
  429UNL    CL1 2317   2.179   4.083   1.439  0.2931 -0.0878  0.0818
  429UNL    CL2 2318   2.006   3.866   1.333 -0.3720  0.2803  0.0445
  429UNL      H 2319   1.982   3.967   1.539 -0.0611  0.2326 -0.3810
  430UNL     CL 2320   1.999   1.824   3.356  0.1242 -0.0326  0.4348
  430UNL      C 2321   2.109   1.684   3.319  0.3578 -0.5640 -0.0742
  430UNL    CL1 2322   2.190   1.736   3.169 -0.2915 -0.3239 -0.1724
  430UNL    CL2 2323   2.227   1.668   3.448 -0.0626 -0.4193  0.0209
  430UNL      H 2324   2.048   1.594   3.307  0.0971 -0.4351  0.2642
  431UNL     CL 2325   0.004   3.707   3.619 -0.1348  0.2753 -0.1568
  431UNL      C 2326   0.062   3.854   3.707 -0.1623 -0.2768 -0.6483
  431UNL    CL1 2327   0.073   4.002   3.599 -0.1697  0.0828  0.3919
  431UNL    CL2 2328  -0.042   3.896   3.857  0.2975 -0.0074 -0.3090
  431UNL      H 2329   0.165   3.831   3.737  1.2646  0.8733 -4.0854
  432UNL     CL 2330   0.171   1.685   2.472 -0.1206  0.1761  0.4587
  432UNL      C 2331   0.251   1.772   2.599 -0.6379 -0.2813 -0.0557
  432UNL    CL1 2332   0.400   1.859   2.526 -0.0149 -0.0736 -0.1485
  432UNL    CL2 2333   0.134   1.883   2.681 -0.2450 -0.1206 -0.1912
  432UNL      H 2334   0.287   1.695   2.669  0.4625  0.1229 -0.1596
  433UNL     CL 2335   2.344   3.533   0.055 -0.1817 -0.4412 -0.1703
  433UNL      C 2336   2.358   3.380   0.153 -0.8696 -0.2773 -0.2244
  433UNL    CL1 2337   2.323   3.237   0.047 -0.1253  0.5332 -0.1754
  433UNL    CL2 2338   2.526   3.373   0.216 -0.5068 -0.7036 -0.0041
  433UNL      H 2339   2.288   3.388   0.236 -1.4285  2.2720 -0.8725
  434UNL     CL 2340   1.706   0.594   1.210  0.0101 -0.1188 -0.2940
  434UNL      C 2341   1.732   0.490   1.067  0.1381 -0.2923  0.6783
  434UNL    CL1 2342   1.572   0.416   1.020 -0.2900 -0.0701  0.1652
  434UNL    CL2 2343   1.807   0.572   0.924 -0.1667 -0.3459  0.1516
  434UNL      H 2344   1.797   0.405   1.092 -1.0272 -1.6459 -0.7186
  435UNL     CL 2345   0.143   0.706   0.272 -0.1595  0.2072  0.3364
  435UNL      C 2346   0.181   0.572   0.394  0.2307  0.0801  0.6299
  435UNL    CL1 2347   0.112   0.608   0.564 -0.3829  0.1619  0.1254
  435UNL    CL2 2348   0.127   0.407   0.346 -0.1155 -0.0123  0.3185
  435UNL      H 2349   0.289   0.560   0.407  0.1882 -0.1107  0.8197
  436UNL     CL 2350   1.011   1.014   3.027  0.4522 -0.0985 -0.3826
  436UNL      C 2351   0.866   1.021   3.117  0.0848 -0.4496  0.0193
  436UNL    CL1 2352   0.721   1.028   3.002 -0.1937  0.2823 -0.1855
  436UNL    CL2 2353   0.864   0.869   3.225 -0.3332  0.5377 -0.6548
  436UNL      H 2354   0.870   1.112   3.178 -1.7538 -0.8349  0.7584
  437UNL     CL 2355   3.058   2.837   0.221 -0.0589 -0.1696 -0.0181
  437UNL      C 2356   3.108   2.753   0.375  0.2554  0.4807 -0.7333
  437UNL    CL1 2357   2.976   2.655   0.433 -0.0115  0.2973 -0.1369
  437UNL    CL2 2358   3.247   2.648   0.339 -0.0904 -0.3084  0.0604
  437UNL      H 2359   3.145   2.826   0.448  2.0540  0.5883 -1.7046
  438UNL     CL 2360   2.125   0.779   1.099  0.0474 -0.1487 -0.1632
  438UNL      C 2361   2.146   0.869   0.943 -1.0803  0.3572 -0.3894
  438UNL    CL1 2362   2.204   0.760   0.812 -0.0670  0.1117 -0.0499
  438UNL    CL2 2363   1.994   0.952   0.894 -0.1695 -0.3255 -0.0323
  438UNL      H 2364   2.224   0.945   0.956 -0.2916 -0.6609  1.3364
  439UNL     CL 2365   3.508   3.228   3.116 -0.1965  0.1090  0.0640
  439UNL      C 2366   3.334   3.181   3.110  0.2810 -0.2304 -0.1693
  439UNL    CL1 2367   3.313   3.002   3.129 -0.0254 -0.2818 -0.3066
  439UNL    CL2 2368   3.256   3.277   3.240 -0.0919  0.3835  0.1505
  439UNL      H 2369   3.284   3.213   3.018 -2.1113  2.6202  1.9254
  440UNL     CL 2370   2.435   1.061   3.785 -0.2620 -0.4360  0.0983
  440UNL      C 2371   2.446   1.238   3.837  0.0163  0.1900 -0.2964
  440UNL    CL1 2372   2.617   1.292   3.864 -0.0254  0.2867 -0.2083
  440UNL    CL2 2373   2.381   1.346   3.705  0.3789  0.0547  0.0269
  440UNL      H 2374   2.387   1.258   3.927  1.1958  2.0901  0.1134
  441UNL     CL 2375   2.679   3.860   1.701 -0.1278  0.0323 -0.2237
  441UNL      C 2376   2.508   3.913   1.721 -0.3816 -0.0942 -0.3064
  441UNL    CL1 2377   2.435   3.813   1.842 -0.1893  0.2091  0.3494
  441UNL    CL2 2378   2.495   4.085   1.776  0.2795  0.2791 -0.1566
  441UNL      H 2379   2.468   3.898   1.620  3.7807 -0.2524 -2.1023
  442UNL     CL 2380   1.179   0.932   3.457  0.1342  0.2637 -0.2556
  442UNL      C 2381   1.233   1.052   3.578 -0.3000  0.0924  0.2502
  442UNL    CL1 2382   1.275   1.209   3.490 -0.1933 -0.0803 -0.0772
  442UNL    CL2 2383   1.116   1.065   3.705  0.0809  0.3312 -0.1123
  442UNL      H 2384   1.323   1.008   3.622 -1.8064 -2.6384  0.8850
  443UNL     CL 2385   1.436   1.311   3.252 -0.0683 -0.4677  0.4625
  443UNL      C 2386   1.302   1.253   3.149 -0.2980  0.1610  0.3884
  443UNL    CL1 2387   1.274   1.362   3.004  0.1523  0.0375 -0.0877
  443UNL    CL2 2388   1.335   1.085   3.102 -0.1254  0.0189 -0.3630
  443UNL      H 2389   1.211   1.244   3.209 -0.4514  1.2415  0.3407
  444UNL     CL 2390   0.410   0.849   0.971 -0.0014  0.1277  0.2567
  444UNL      C 2391   0.237   0.836   0.984  0.3140 -0.0358 -0.3031
  444UNL    CL1 2392   0.157   0.857   0.825  0.0755  0.6462  0.4523
  444UNL    CL2 2393   0.191   0.668   1.041 -0.1366 -0.6539 -0.2547
  444UNL      H 2394   0.198   0.904   1.060 -0.9024 -0.7469 -0.2756
  445UNL     CL 2395   0.550   2.238   1.647 -0.0454 -0.0032  0.4781
  445UNL      C 2396   0.559   2.413   1.631  0.5035  0.0260 -0.1091
  445UNL    CL1 2397   0.721   2.461   1.671  0.2212  0.4275  0.4838
  445UNL    CL2 2398   0.523   2.466   1.465 -0.1914  0.2675  0.0977
  445UNL      H 2399   0.487   2.458   1.701  2.3489 -0.5666  2.3355
  446UNL     CL 2400   3.629   3.917   2.318  0.1059  0.0666 -0.1937
  446UNL      C 2401   3.698   4.012   2.183  0.9136  0.3883  0.2955
  446UNL    CL1 2402   3.880   3.989   2.178  0.4078  0.2551  0.3432
  446UNL    CL2 2403   3.629   3.951   2.025  0.0809 -0.0587 -0.2761
  446UNL      H 2404   3.678   4.117   2.207 -0.8737  0.1114  0.1171
  447UNL     CL 2405   3.944   0.973   4.130 -0.0285 -0.3646  0.0578
  447UNL      C 2406   3.789   1.069   4.078  0.0575  0.1398  0.5971
  447UNL    CL1 2407   3.650   1.012   4.187 -0.2971  0.1393  0.0760
  447UNL    CL2 2408   3.811   1.240   4.097  0.4853 -0.0620 -0.2224
  447UNL      H 2409   3.761   1.050   3.974 -2.5651 -0.4787  1.3478
  448UNL     CL 2410   0.569   2.826   4.106  0.0062 -0.3492  0.2318
  448UNL      C 2411   0.707   2.861   4.218 -0.3583 -0.0335 -0.3080
  448UNL    CL1 2412   0.864   2.786   4.161  0.1863  0.1225 -0.1943
  448UNL    CL2 2413   0.725   3.032   4.237 -0.1250 -0.5453 -0.0603
  448UNL      H 2414   0.675   2.821   4.315  0.6978  0.0887  0.1076
  449UNL     CL 2415   3.760   1.553   0.762  0.3358  0.1433 -0.1311
  449UNL      C 2416   3.609   1.505   0.664 -0.3023  0.8750 -0.5481
  449UNL    CL1 2417   3.609   1.330   0.628 -0.3358  0.0374 -0.1999
  449UNL    CL2 2418   3.461   1.553   0.761  0.1758  0.0107  0.0998
  449UNL      H 2419   3.610   1.547   0.563  0.3051 -0.8467 -1.2990
  450UNL     CL 2420   4.121   1.176   0.107 -0.0806  0.4734 -0.1383
  450UNL      C 2421   4.157   1.046   0.223  0.3744  0.0270  0.0440
  450UNL    CL1 2422   4.246   1.107   0.359 -0.5987  0.2264 -0.1666
  450UNL    CL2 2423   4.003   0.971   0.278  0.0377 -0.0301  0.0471
  450UNL      H 2424   4.210   0.971   0.164 -0.7949 -1.7807  1.1822
  451UNL     CL 2425   0.226   1.527   2.894 -0.2577 -0.0537 -0.2347
  451UNL      C 2426   0.053   1.465   2.886  0.4213  0.2854  0.4514
  451UNL    CL1 2427   0.003   1.399   2.721  0.0736  0.4732  0.0355
  451UNL    CL2 2428   0.035   1.346   3.020 -0.0351 -0.5625 -0.2098
  451UNL      H 2429  -0.014   1.551   2.899 -2.7573 -2.0432  0.7903
  452UNL     CL 2430   3.618   0.060   0.418 -0.2512 -0.6434  0.1425
  452UNL      C 2431   3.535   0.055   0.251 -0.3016  0.1095 -0.0893
  452UNL    CL1 2432   3.391   0.163   0.256 -0.4180  0.4521 -0.1174
  452UNL    CL2 2433   3.661   0.091   0.133  0.1966  0.1452  0.3404
  452UNL      H 2434   3.502  -0.047   0.227  1.3143 -0.8992  1.7201
  453UNL     CL 2435   0.414   2.132   0.796  0.5572  0.2008 -0.1037
  453UNL      C 2436   0.452   1.956   0.793 -1.2716 -0.3047  0.0892
  453UNL    CL1 2437   0.524   1.906   0.946 -0.4132 -0.0347 -0.2211
  453UNL    CL2 2438   0.327   1.851   0.753  0.2543 -0.0998 -0.2365
  453UNL      H 2439   0.526   1.950   0.713 -0.4544  1.0179  0.7049
  454UNL     CL 2440   4.044   3.011   0.461 -0.1128 -0.0440  0.0487
  454UNL      C 2441   4.176   3.131   0.478  0.8310 -0.8614 -0.8202
  454UNL    CL1 2442   4.163   3.234   0.337 -0.3448  0.0372  0.1574
  454UNL    CL2 2443   4.145   3.229   0.621  0.2095 -0.4231 -0.2753
  454UNL      H 2444   4.277   3.088   0.482  0.5862 -1.4186  2.8839
  455UNL     CL 2445   0.272   1.908   1.815 -0.0147  0.0709  0.1790
  455UNL      C 2446   0.352   1.925   1.969  0.6815 -0.4791  0.1177
  455UNL    CL1 2447   0.507   1.833   1.970 -0.1241  0.1091 -0.2742
  455UNL    CL2 2448   0.399   2.099   1.997  0.0676 -0.0871  0.0814
  455UNL      H 2449   0.286   1.878   2.043 -1.3991  1.4379 -0.4302
  456UNL     CL 2450   4.074   1.927   1.234 -0.1318 -0.1784  0.1439
  456UNL      C 2451   4.215   1.817   1.220 -0.4425 -0.4342  0.2280
  456UNL    CL1 2452   4.205   1.688   1.346 -0.5637 -0.0501 -0.0300
  456UNL    CL2 2453   4.216   1.760   1.049  0.2037 -0.1679  0.1457
  456UNL      H 2454   4.305   1.878   1.230  0.9443 -2.1799 -0.9099
  457UNL     CL 2455   0.302   0.945   0.486 -0.3008  0.5544 -0.1328
  457UNL      C 2456   0.457   0.941   0.569 -0.5116 -0.4335 -0.4640
  457UNL    CL1 2457   0.494   0.773   0.622 -0.0988  0.3894  0.3020
  457UNL    CL2 2458   0.577   1.006   0.459  0.3439  0.4417  0.3956
  457UNL      H 2459   0.457   1.004   0.658  0.7760 -0.4808 -0.3984
  458UNL     CL 2460   3.542   3.031   2.586  0.1219 -0.2290 -0.0792
  458UNL      C 2461   3.533   3.181   2.699 -0.1027 -0.6156  0.8490
  458UNL    CL1 2462   3.367   3.185   2.762 -0.1984 -0.1333 -0.0436
  458UNL    CL2 2463   3.661   3.172   2.836  0.3071  0.0646 -0.0381
  458UNL      H 2464   3.541   3.269   2.635 -5.0615 -0.7691 -0.4219
  459UNL     CL 2465   1.131   2.878   2.277  0.5270 -0.0281 -0.2559
  459UNL      C 2466   1.032   2.910   2.136 -0.2976 -0.9518  0.4229
  459UNL    CL1 2467   0.952   2.754   2.102 -0.4172 -0.1391 -0.3126
  459UNL    CL2 2468   0.907   3.041   2.175 -0.2259 -0.1748 -0.0196
  459UNL      H 2469   1.096   2.935   2.051 -0.6905  0.5194  0.5204
  460UNL     CL 2470   0.036   0.764   4.088  0.0935  0.4352  0.0151
  460UNL      C 2471  -0.002   0.796   3.913  0.8772 -0.6269  0.4382
  460UNL    CL1 2472   0.039   0.978   3.879 -0.6546  0.1406  0.0201
  460UNL    CL2 2473   0.091   0.693   3.800 -0.2583  0.1749  0.0176
  460UNL      H 2474  -0.105   0.767   3.889  1.0443 -0.1550 -0.9265
  461UNL     CL 2475   1.848   1.395   3.343  0.3447  0.2381 -0.4496
  461UNL      C 2476   1.862   1.330   3.508  0.1352 -0.1209  0.0928
  461UNL    CL1 2477   1.982   1.415   3.603 -0.1076 -0.6120  0.0158
  461UNL    CL2 2478   1.700   1.332   3.587 -0.1190 -0.0266 -0.1070
  461UNL      H 2479   1.896   1.226   3.499 -1.2800 -0.7150  1.1560
  462UNL     CL 2480   0.868   3.802   1.721  0.4193 -0.0581  0.6584
  462UNL      C 2481   0.964   3.866   1.589  0.3228  0.2692 -0.1216
  462UNL    CL1 2482   0.883   3.846   1.437 -0.3073 -0.0458  0.1569
  462UNL    CL2 2483   0.979   4.045   1.616  0.0302  0.2558 -0.2732
  462UNL      H 2484   1.066   3.826   1.590 -0.3182 -1.4500  0.4416
  463UNL     CL 2485   1.210   1.555   0.440  0.0722 -0.0427  0.2994
  463UNL      C 2486   1.191   1.387   0.494  0.0362 -0.2533  0.4233
  463UNL    CL1 2487   1.098   1.393   0.642  0.0858 -0.0793 -0.1611
  463UNL    CL2 2488   1.097   1.292   0.375  0.0708 -0.0903  0.1260
  463UNL      H 2489   1.285   1.334   0.512 -0.4745 -1.1914  0.3684
  464UNL     CL 2490   1.220   2.001   3.034  0.2858 -0.2421  0.0247
  464UNL      C 2491   1.254   2.073   2.878  0.6930 -0.2827 -0.3489
  464UNL    CL1 2492   1.411   2.163   2.887  0.2476 -0.1584 -0.0558
  464UNL    CL2 2493   1.249   1.953   2.747  0.2291 -0.2535 -0.1227
  464UNL      H 2494   1.177   2.142   2.842 -1.0591 -2.3347 -0.7387
  465UNL     CL 2495   1.562   0.616   2.689 -0.4162  0.4739  0.1677
  465UNL      C 2496   1.610   0.757   2.781  0.1193 -0.5460  0.0053
  465UNL    CL1 2497   1.588   0.747   2.953  0.0703  0.0216 -0.2322
  465UNL    CL2 2498   1.787   0.778   2.756 -0.1010 -0.0572 -0.0654
  465UNL      H 2499   1.563   0.852   2.754  0.9231  0.1286  0.8805
  466UNL     CL 2500   0.018   1.448   1.650  0.2797  0.1045 -0.1391
  466UNL      C 2501  -0.124   1.346   1.708  0.0209  0.2383 -0.0360
  466UNL    CL1 2502  -0.059   1.174   1.715  0.3620 -0.2126 -0.0519
  466UNL    CL2 2503  -0.166   1.401   1.883 -0.1270 -0.5025 -0.0012
  466UNL      H 2504  -0.206   1.364   1.638  1.7019  2.4880 -1.6174
  467UNL     CL 2505   3.601   2.974   1.553 -0.3327  0.1220 -0.0180
  467UNL      C 2506   3.622   3.071   1.694  0.0292  1.2946  0.2001
  467UNL    CL1 2507   3.754   3.192   1.671 -0.1710  0.0289 -0.0156
  467UNL    CL2 2508   3.475   3.149   1.744  0.2189 -0.1411  0.2982
  467UNL      H 2509   3.656   3.012   1.780  3.0315  0.5893 -1.3423
  468UNL     CL 2510   2.198   1.472   1.587  0.2540 -0.0136  0.1454
  468UNL      C 2511   2.184   1.460   1.762  0.2396 -0.2180 -0.7273
  468UNL    CL1 2512   2.190   1.297   1.813  0.3122  0.2493  0.2071
  468UNL    CL2 2513   2.325   1.544   1.842  0.2177  0.4078 -0.3946
  468UNL      H 2514   2.087   1.506   1.785 -0.0066 -0.7449 -0.7092
  469UNL     CL 2515   1.814   0.733   3.473  0.2559  0.0020 -0.0686
  469UNL      C 2516   1.751   0.873   3.390  0.4339 -0.2431  0.9449
  469UNL    CL1 2517   1.618   0.956   3.483 -0.1290 -0.1021 -0.3238
  469UNL    CL2 2518   1.885   0.989   3.351 -0.4059  0.0274  0.3408
  469UNL      H 2519   1.698   0.849   3.297 -0.3803  1.0028  1.0530
  470UNL     CL 2520   0.385   2.721   1.650 -0.0404  0.3368 -0.4903
  470UNL      C 2521   0.419   2.772   1.474  0.0335 -0.2630 -0.2948
  470UNL    CL1 2522   0.333   2.921   1.417 -0.3660 -0.3514  0.0035
  470UNL    CL2 2523   0.587   2.803   1.460 -0.0629  0.2296  0.1141
  470UNL      H 2524   0.388   2.686   1.414  1.3369 -1.1535  0.2630
  471UNL     CL 2525   0.797   3.622   2.850  0.3711  0.2313  0.2119
  471UNL      C 2526   0.731   3.770   2.765 -0.2111 -0.2381 -0.8595
  471UNL    CL1 2527   0.553   3.769   2.785 -0.0517  0.2304  0.0172
  471UNL    CL2 2528   0.797   3.930   2.830 -0.0059  0.2002 -0.4251
  471UNL      H 2529   0.752   3.764   2.658 -0.9493 -1.5076 -0.9568
  472UNL     CL 2530   3.189   0.183   2.359  0.1623  0.1446 -0.3107
  472UNL      C 2531   3.309   0.236   2.471  0.2780 -0.0141  0.0781
  472UNL    CL1 2532   3.230   0.251   2.638 -0.3481  0.1570 -0.1895
  472UNL    CL2 2533   3.450   0.128   2.475 -0.3567  0.5172  0.1297
  472UNL      H 2534   3.344   0.332   2.432 -0.8756  0.8303  1.0357
  473UNL     CL 2535   1.208   1.184   1.731  0.0668 -0.3935  0.0294
  473UNL      C 2536   1.123   1.021   1.744 -0.6812 -0.0126  0.2845
  473UNL    CL1 2537   1.245   0.878   1.740 -0.1312  0.2281 -0.4651
  473UNL    CL2 2538   1.016   1.002   1.897 -0.2702 -0.3627  0.1447
  473UNL      H 2539   1.055   1.012   1.658 -1.2524 -0.0724  0.7409
  474UNL     CL 2540   3.576   2.865   0.883  0.0841  0.2850 -0.5476
  474UNL      C 2541   3.658   3.000   0.799  0.4624 -0.5660  0.1116
  474UNL    CL1 2542   3.743   2.937   0.652 -0.1867  0.0534  0.0918
  474UNL    CL2 2543   3.537   3.132   0.759 -0.0337 -0.5145 -0.2025
  474UNL      H 2544   3.734   3.039   0.867 -0.7800  0.8946  0.7253
  475UNL     CL 2545   0.646   1.360   0.091 -0.1653 -0.3173 -0.0249
  475UNL      C 2546   0.668   1.185   0.138 -0.2586  0.3468  0.3242
  475UNL    CL1 2547   0.713   1.078   0.004  0.0234  0.0433  0.3096
  475UNL    CL2 2548   0.792   1.194   0.249  0.2816 -0.1426  0.1523
  475UNL      H 2549   0.582   1.139   0.186  0.7612 -1.7700  0.2681
  476UNL     CL 2550   0.647   0.604   4.166 -0.0896  0.0076  0.1940
  476UNL      C 2551   0.528   0.721   4.227  0.4327 -0.4262  0.5261
  476UNL    CL1 2552   0.366   0.678   4.162  0.1198  0.0528  0.4145
  476UNL    CL2 2553   0.513   0.713   4.410  0.2252 -0.5828 -0.1679
  476UNL      H 2554   0.561   0.819   4.191  0.1846  0.1074  1.6973
  477UNL     CL 2555   4.029   4.029   3.389 -0.1895  0.0444  0.0967
  477UNL      C 2556   3.874   3.940   3.421 -0.3400 -0.3876  0.0885
  477UNL    CL1 2557   3.889   3.779   3.359 -0.3538 -0.1838  0.2130
  477UNL    CL2 2558   3.845   3.935   3.605  0.2630  0.2334  0.0523
  477UNL      H 2559   3.789   3.981   3.366 -0.1039 -0.1334 -0.0901
  478UNL     CL 2560   1.704   2.850   2.039  0.2528  0.1870  0.1229
  478UNL      C 2561   1.846   2.861   1.925 -0.2821  0.8904 -0.0885
  478UNL    CL1 2562   1.821   2.792   1.769 -0.7028  0.2518  0.0600
  478UNL    CL2 2563   1.885   3.035   1.901 -0.3354 -0.6832  0.0429
  478UNL      H 2564   1.939   2.813   1.957  0.1114  1.3503 -0.5212
  479UNL     CL 2565   0.612   1.540   0.958 -0.2933  0.2455  0.0182
  479UNL      C 2566   0.768   1.502   0.875 -0.4892 -0.1956 -0.4693
  479UNL    CL1 2567   0.764   1.517   0.697 -0.2592  0.6101 -0.4090
  479UNL    CL2 2568   0.897   1.614   0.936 -0.1842  0.1912 -0.1234
  479UNL      H 2569   0.799   1.398   0.890  0.2452  0.0468 -0.2483
  480UNL     CL 2570   3.459   0.833   3.515 -0.3128 -0.1619  0.2524
  480UNL      C 2571   3.288   0.887   3.465  0.3355 -0.0961  0.0632
  480UNL    CL1 2572   3.237   0.812   3.312 -0.1582 -0.1571  0.0260
  480UNL    CL2 2573   3.181   0.841   3.603  0.2400 -0.3989  0.6358
  480UNL      H 2574   3.276   0.994   3.444  1.1720  0.4361  2.0343
  481UNL     CL 2575   4.088   0.981   1.212 -0.0866  0.4675 -0.0701
  481UNL      C 2576   4.043   1.054   1.370 -0.0465  0.8369 -0.2704
  481UNL    CL1 2577   4.049   1.239   1.384 -0.4362  0.1003 -0.1197
  481UNL    CL2 2578   3.875   1.015   1.414  0.1151  0.1621  0.0910
  481UNL      H 2579   4.108   1.017   1.449 -1.4477 -0.6906  0.2157
  482UNL     CL 2580   2.443   1.859   3.857  0.0249  0.1198 -0.5667
  482UNL      C 2581   2.324   1.773   3.970  0.9947 -0.3345  0.1373
  482UNL    CL1 2582   2.166   1.731   3.892 -0.1654  0.0597 -0.6410
  482UNL    CL2 2583   2.406   1.623   4.038  0.0402  0.1492  0.0392
  482UNL      H 2584   2.307   1.836   4.058  0.6198  0.8523 -0.7444
  483UNL     CL 2585   2.677   3.420   2.794 -0.2524 -0.0333  0.0866
  483UNL      C 2586   2.736   3.562   2.886 -0.5387  0.0381 -0.7187
  483UNL    CL1 2587   2.693   3.710   2.795  0.0177  0.4580  0.0803
  483UNL    CL2 2588   2.666   3.572   3.064 -0.4881  0.0751  0.3872
  483UNL      H 2589   2.844   3.554   2.898 -0.6527  1.5771  2.3794
  484UNL     CL 2590   0.568   2.167   2.744  0.0923  0.5516 -0.2709
  484UNL      C 2591   0.463   2.098   2.865  0.0154 -0.3305 -0.4510
  484UNL    CL1 2592   0.470   1.924   2.849 -0.0772 -0.2202 -0.0808
  484UNL    CL2 2593   0.507   2.164   3.029 -0.4991 -0.6675  0.2874
  484UNL      H 2594   0.362   2.132   2.840  0.7936  1.9498 -0.7132
  485UNL     CL 2595   3.452   3.303   2.282 -0.1978  0.6736 -0.0249
  485UNL      C 2596   3.559   3.439   2.350  0.2748 -0.0266 -0.6525
  485UNL    CL1 2597   3.717   3.379   2.405  0.1499 -0.4652  0.2725
  485UNL    CL2 2598   3.582   3.561   2.210  0.0099 -0.1866 -0.1649
  485UNL      H 2599   3.506   3.498   2.425  2.0874  0.9616 -0.0755
  486UNL     CL 2600   0.458   4.121   1.201  0.3680  0.2797 -0.0753
  486UNL      C 2601   0.612   4.094   1.304  0.3316 -0.1197  0.8036
  486UNL    CL1 2602   0.729   4.023   1.194 -0.7468  0.0149 -0.1837
  486UNL    CL2 2603   0.668   4.242   1.385 -0.1109  0.1465 -0.2659
  486UNL      H 2604   0.594   4.013   1.374 -2.7202 -0.0741  0.2223
  487UNL     CL 2605   3.880   4.053   4.198 -0.4397 -0.2672  0.3470
  487UNL      C 2606   3.876   4.177   4.071  0.4724 -0.0730  0.2927
  487UNL    CL1 2607   4.039   4.257   4.040 -0.0234 -0.1545 -0.2914
  487UNL    CL2 2608   3.825   4.118   3.911  0.2706  0.1122  0.3449
  487UNL      H 2609   3.801   4.251   4.100  0.7951  0.2618  0.2742
  488UNL     CL 2610   2.696   0.513   1.059  0.2347 -0.3044 -0.0398
  488UNL      C 2611   2.829   0.458   0.946 -0.5659  0.4147 -0.6496
  488UNL    CL1 2612   2.992   0.522   0.990  0.0035  0.0551 -0.1120
  488UNL    CL2 2613   2.845   0.275   0.928  0.0561  0.0177 -0.0327
  488UNL      H 2614   2.794   0.499   0.850 -1.5677 -0.5767 -0.7329
  489UNL     CL 2615   1.543   1.564   1.802  0.0410  0.0417  0.2339
  489UNL      C 2616   1.395   1.655   1.751  0.4534  0.0587  0.1256
  489UNL    CL1 2617   1.417   1.718   1.590 -0.2176  0.3162  0.2313
  489UNL    CL2 2618   1.244   1.564   1.746 -0.0670  0.4553  0.1432
  489UNL      H 2619   1.374   1.733   1.825 -1.9964 -0.5551  0.1712
  490UNL     CL 2620   1.956   1.237   1.179  0.0764 -0.6915 -0.1574
  490UNL      C 2621   1.782   1.214   1.174  0.3284  0.1483  0.0221
  490UNL    CL1 2622   1.724   1.307   1.032 -0.0370 -0.6683 -0.1283
  490UNL    CL2 2623   1.748   1.040   1.155 -0.2969  0.1814 -0.3973
  490UNL      H 2624   1.737   1.250   1.267 -0.1063  1.7362 -0.7565
  491UNL     CL 2625   1.411   0.431   1.561  0.5710  0.1612 -0.0500
  491UNL      C 2626   1.557   0.423   1.665 -0.1451 -0.0198 -0.6528
  491UNL    CL1 2627   1.694   0.483   1.565 -0.0725 -0.0353 -0.2938
  491UNL    CL2 2628   1.543   0.525   1.806 -0.4193 -0.2975  0.1688
  491UNL      H 2629   1.586   0.322   1.697  1.4821  0.5272 -0.3278
  492UNL     CL 2630   1.542   4.091   3.486  0.0941 -0.0525 -0.4875
  492UNL      C 2631   1.583   4.244   3.393 -0.6428  0.8489  0.6150
  492UNL    CL1 2632   1.624   4.360   3.513  0.0374  0.0393  0.5418
  492UNL    CL2 2633   1.711   4.207   3.278 -0.1088  0.1311  0.4011
  492UNL      H 2634   1.496   4.270   3.331 -0.0594  1.3134 -0.0255
  493UNL     CL 2635   2.969   3.092   1.547  0.2082  0.2976  0.4654
  493UNL      C 2636   2.888   3.110   1.385  0.3701  0.0749 -0.1629
  493UNL    CL1 2637   2.999   3.082   1.244  0.2792  0.0209 -0.3818
  493UNL    CL2 2638   2.745   3.000   1.365  0.2420 -0.2061  0.0272
  493UNL      H 2639   2.846   3.212   1.391  0.6790  0.1247  2.1316
  494UNL     CL 2640   3.712   3.821   1.664 -0.5209 -0.7213 -0.3009
  494UNL      C 2641   3.714   3.649   1.721 -0.5995 -0.1080  0.2254
  494UNL    CL1 2642   3.595   3.617   1.852  0.1573 -0.0991 -0.0182
  494UNL    CL2 2643   3.685   3.544   1.576  0.2998  0.0349  0.1609
  494UNL      H 2644   3.813   3.620   1.757 -0.8392 -0.4889  0.5886
  495UNL     CL 2645   3.255   2.575   0.794  0.5159 -0.2110  0.0354
  495UNL      C 2646   3.388   2.445   0.784  0.1851  0.0343 -0.0020
  495UNL    CL1 2647   3.545   2.492   0.852  0.0278 -0.2340  0.1010
  495UNL    CL2 2648   3.327   2.319   0.895 -0.0797 -0.0792  0.1410
  495UNL      H 2649   3.406   2.405   0.683 -1.0343 -1.2452  0.2604
  496UNL     CL 2650   4.097   2.386   3.637  0.1090  0.3131 -0.5150
  496UNL      C 2651   4.131   2.293   3.794 -0.2719 -0.4784  0.1674
  496UNL    CL1 2652   3.975   2.243   3.882 -0.1949 -0.2533  0.3050
  496UNL    CL2 2653   4.216   2.142   3.747  0.3234 -0.3932  0.1977
  496UNL      H 2654   4.204   2.353   3.849  1.4250 -0.4398 -1.9727
  497UNL     CL 2655   4.094   1.667   3.677 -0.4938  0.0685 -0.3339
  497UNL      C 2656   4.241   1.773   3.668 -0.4614  0.8641 -0.5153
  497UNL    CL1 2657   4.392   1.676   3.630 -0.1807 -0.4589 -0.0223
  497UNL    CL2 2658   4.228   1.891   3.543 -0.1644  0.5959  0.3081
  497UNL      H 2659   4.251   1.814   3.769  0.1594 -0.7132  0.0941
  498UNL     CL 2660   3.920   0.776   3.531 -0.4769  0.0323 -0.0879
  498UNL      C 2661   3.802   0.765   3.664  0.1887  0.2265 -0.1121
  498UNL    CL1 2662   3.859   0.641   3.771 -0.0241  0.2474 -0.0563
  498UNL    CL2 2663   3.790   0.924   3.753 -0.0004 -0.4311 -0.0011
  498UNL      H 2664   3.704   0.740   3.621 -0.0528  0.4559  0.2966
  499UNL     CL 2665   0.372   3.330   2.721 -0.1576 -0.3006  0.4155
  499UNL      C 2666   0.225   3.399   2.782 -0.5142 -0.0506  0.1389
  499UNL    CL1 2667   0.195   3.338   2.944 -0.1949  0.1644 -0.1787
  499UNL    CL2 2668   0.239   3.581   2.767 -0.0393  0.4908  0.2700
  499UNL      H 2669   0.142   3.365   2.720  0.5523 -1.3850 -0.6046
  500UNL     CL 2670   0.744   0.755   2.707 -0.0906  0.0723 -0.1985
  500UNL      C 2671   0.572   0.797   2.720  0.2235  0.7405  0.1773
  500UNL    CL1 2672   0.491   0.671   2.629 -0.0430 -0.2501  0.1514
  500UNL    CL2 2673   0.514   0.782   2.890 -0.0145  0.0787 -0.3575
  500UNL      H 2674   0.557   0.899   2.684  1.6107  0.2954 -1.8664
  501UNL     CL 2675   2.822   0.362   2.432  0.2642 -0.0854 -0.5768
  501UNL      C 2676   2.759   0.246   2.552  0.5708 -0.1902 -0.3416
  501UNL    CL1 2677   2.866   0.111   2.575  0.0950 -0.0995  0.0746
  501UNL    CL2 2678   2.739   0.322   2.712  0.1264 -0.3275 -0.0994
  501UNL      H 2679   2.660   0.209   2.522  0.9351  0.3064 -2.2716
  502UNL     CL 2680   2.378   1.717   0.278  0.3454 -0.2848 -0.1097
  502UNL      C 2681   2.374   1.903   0.247 -0.5154  0.7246  0.2309
  502UNL    CL1 2682   2.504   1.975   0.328 -0.4871 -0.1673 -0.4383
  502UNL    CL2 2683   2.395   1.941   0.078  0.2079 -0.2864  0.1541
  502UNL      H 2684   2.280   1.941   0.288  0.0641  0.9969  1.3519
  503UNL     CL 2685   2.505   3.289   1.349  0.1401 -0.2625 -0.2298
  503UNL      C 2686   2.340   3.348   1.366 -0.0393 -0.2492 -0.1466
  503UNL    CL1 2687   2.251   3.217   1.471 -0.0528 -0.0714  0.5138
  503UNL    CL2 2688   2.345   3.501   1.453 -0.3273  0.0521 -0.1017
  503UNL      H 2689   2.286   3.372   1.274  2.0294  1.6819 -0.9280
  504UNL     CL 2690   3.798   1.933   3.645  0.1147 -0.0690 -0.5364
  504UNL      C 2691   3.707   2.094   3.647 -0.2606  0.1748  0.4314
  504UNL    CL1 2692   3.574   2.102   3.534  0.1906  0.4971  0.0139
  504UNL    CL2 2693   3.643   2.111   3.809 -0.0382  0.3245 -0.1333
  504UNL      H 2694   3.777   2.174   3.624 -2.4435  3.0030  2.7811
  505UNL     CL 2695   0.203   0.983   2.288 -0.0569  0.0509 -0.3223
  505UNL      C 2696   0.099   1.113   2.366  0.2811 -0.0012 -0.6748
  505UNL    CL1 2697   0.044   1.050   2.532  0.2792  0.1057 -0.0795
  505UNL    CL2 2698   0.199   1.264   2.404 -0.0704  0.0003  0.0017
  505UNL      H 2699   0.015   1.135   2.300 -1.0956 -0.9592  0.6873
  506UNL     CL 2700   4.104   2.560   1.431 -0.1879 -0.1353 -0.2582
  506UNL      C 2701   4.270   2.624   1.389 -0.7716  0.1051  0.1404
  506UNL    CL1 2702   4.373   2.499   1.309  0.0857  0.0592 -0.3531
  506UNL    CL2 2703   4.264   2.760   1.278  0.0843  0.0557 -0.2368
  506UNL      H 2704   4.322   2.652   1.482 -1.8383 -0.9481  1.0856
  507UNL     CL 2705   0.782   1.852   2.362  0.0235  0.7434  0.1185
  507UNL      C 2706   0.782   2.004   2.466 -0.0675 -0.4251  0.4493
  507UNL    CL1 2707   0.948   2.081   2.474 -0.1929 -0.2812  0.4909
  507UNL    CL2 2708   0.656   2.120   2.388 -0.2882 -0.0748  0.3124
  507UNL      H 2709   0.753   1.986   2.570  1.7595 -0.5787  0.9688
  508UNL     CL 2710   2.168   0.587   2.787  0.0196 -0.5146 -0.1101
  508UNL      C 2711   2.301   0.712   2.777 -0.8487 -0.0333  0.5175
  508UNL    CL1 2712   2.292   0.817   2.916  0.2855  0.0263 -0.1840
  508UNL    CL2 2713   2.463   0.631   2.758  0.0137 -0.0266  0.0424
  508UNL      H 2714   2.282   0.774   2.688  0.2564 -0.6536 -0.1671
  509UNL     CL 2715   2.605   3.364   4.093  0.1012 -0.2776 -0.3069
  509UNL      C 2716   2.515   3.350   3.939 -0.1343  0.1853 -0.4487
  509UNL    CL1 2717   2.440   3.510   3.891 -0.4917  0.0496 -0.0428
  509UNL    CL2 2718   2.629   3.294   3.812 -0.0446 -0.3190  0.0009
  509UNL      H 2719   2.435   3.277   3.956 -0.6685  0.9120  0.2141
  510UNL     CL 2720   2.325   0.215   3.988  0.3911  0.3558  0.0045
  510UNL      C 2721   2.425   0.065   4.023  0.0715 -0.1076 -0.1022
  510UNL    CL1 2722   2.494  -0.001   3.873  0.3205 -0.6034  0.1303
  510UNL    CL2 2723   2.553   0.086   4.150  0.1035 -0.2895 -0.1148
  510UNL      H 2724   2.359  -0.016   4.056 -0.9594  0.3836 -0.9011
  511UNL     CL 2725   2.843   0.219   3.491  0.2092  0.6031  0.0192
  511UNL      C 2726   2.709   0.101   3.511 -0.1330 -0.1147 -0.9232
  511UNL    CL1 2727   2.748  -0.004   3.656 -0.1944  0.0163 -0.0089
  511UNL    CL2 2728   2.564   0.198   3.544 -0.1764  0.1107  0.7206
  511UNL      H 2729   2.699   0.037   3.422  0.0957  0.0152 -1.0430
  512UNL     CL 2730   3.518   3.838   1.269 -0.0019  0.1740  0.0911
  512UNL      C 2731   3.357   3.808   1.200 -0.2228  0.1932 -0.0534
  512UNL    CL1 2732   3.278   3.979   1.176 -0.4287 -0.0195  0.3092
  512UNL    CL2 2733   3.357   3.718   1.037  0.4535 -0.1523 -0.0470
  512UNL      H 2734   3.286   3.747   1.257 -0.2135 -2.2454 -2.4212
  513UNL     CL 2735   3.767   0.148   2.804  0.4435  0.1189 -0.3910
  513UNL      C 2736   3.891   0.074   2.918  0.2565  0.0016  0.2582
  513UNL    CL1 2737   3.804  -0.054   3.015 -0.4513  0.2738  0.7326
  513UNL    CL2 2738   4.034  -0.007   2.825 -0.1269  0.1873 -0.0208
  513UNL      H 2739   3.931   0.154   2.980 -1.7965  1.2160  0.1216
  514UNL     CL 2740   2.478   4.056   3.145 -0.1669  0.0728 -0.0031
  514UNL      C 2741   2.497   3.942   3.285  0.3256 -0.7260 -0.1459
  514UNL    CL1 2742   2.589   4.021   3.421  0.1673 -0.0963 -0.1235
  514UNL    CL2 2743   2.337   3.889   3.342  0.0370  0.1767  0.0448
  514UNL      H 2744   2.560   3.858   3.253  0.9269 -1.3151  2.3228
  515UNL     CL 2745   2.286   0.916   4.115 -0.0255  0.0468 -0.4131
  515UNL      C 2746   2.436   0.904   4.210  0.0813 -0.4329 -0.2781
  515UNL    CL1 2747   2.571   0.941   4.099 -0.0916 -0.1382  0.1636
  515UNL    CL2 2748   2.433   1.031   4.345 -0.2264 -0.1202 -0.0485
  515UNL      H 2749   2.450   0.804   4.250  1.2413 -0.5431 -0.9177
  516UNL     CL 2750   0.766   0.511   2.425 -0.2292  0.0602  0.2094
  516UNL      C 2751   0.689   0.344   2.458 -0.7023 -0.1340  0.7689
  516UNL    CL1 2752   0.573   0.342   2.588  0.2533  0.1203 -0.2304
  516UNL    CL2 2753   0.611   0.269   2.312 -0.0201  0.0238 -0.3161
  516UNL      H 2754   0.767   0.276   2.494  0.0488  0.7457  0.8127
  517UNL     CL 2755   2.446   3.798   0.646 -0.0688  0.2502 -0.1418
  517UNL      C 2756   2.347   3.834   0.506  0.1295 -0.1053  0.6408
  517UNL    CL1 2757   2.346   4.006   0.464 -0.2352  0.0665 -0.3064
  517UNL    CL2 2758   2.415   3.740   0.366  0.0489 -0.3507  0.0836
  517UNL      H 2759   2.242   3.813   0.532  0.0247  0.0842  0.3799
  518UNL     CL 2760   0.540   3.349   2.249  0.0317 -0.0033 -0.0516
  518UNL      C 2761   0.385   3.248   2.222  0.1696 -0.6806 -0.6136
  518UNL    CL1 2762   0.315   3.201   2.393 -0.2403 -0.2383  0.1463
  518UNL    CL2 2763   0.264   3.343   2.133 -0.0520 -0.3556 -0.4207
  518UNL      H 2764   0.407   3.154   2.169  0.4840 -0.9962  0.0676
  519UNL     CL 2765   4.004   2.264   3.117 -0.4342 -0.2122 -0.1540
  519UNL      C 2766   3.981   2.211   3.291 -0.0777 -0.0166 -0.2925
  519UNL    CL1 2767   3.848   2.310   3.360  0.0070 -0.0157 -0.0296
  519UNL    CL2 2768   3.942   2.038   3.301 -0.1581 -0.0159  0.0494
  519UNL      H 2769   4.073   2.239   3.344  0.0637  0.3654 -0.7360
  520UNL     CL 2770   0.787   0.691   1.291 -0.0004 -0.2008 -0.0056
  520UNL      C 2771   0.963   0.692   1.337 -0.0407 -0.0890  0.1471
  520UNL    CL1 2772   1.024   0.862   1.331 -0.1182  0.0795  0.2108
  520UNL    CL2 2773   1.000   0.633   1.501  0.5853  0.2763 -0.1200
  520UNL      H 2774   1.021   0.638   1.261 -2.4077 -0.5259 -1.4699
  521UNL     CL 2775   3.587   3.238   3.483  0.2484  0.3349  0.4023
  521UNL      C 2776   3.481   3.133   3.580 -0.5997 -0.2321  0.0658
  521UNL    CL1 2777   3.490   2.969   3.514 -0.4657  0.4588  0.3316
  521UNL    CL2 2778   3.517   3.137   3.762 -0.0852  0.0589 -0.2014
  521UNL      H 2779   3.380   3.174   3.565  0.2692  1.4547 -1.6231
  522UNL     CL 2780   0.278   1.604   2.177 -0.1118  0.2042  0.1006
  522UNL      C 2781   0.103   1.546   2.178  0.3213  0.1260 -0.4972
  522UNL    CL1 2782  -0.010   1.644   2.077 -0.4176  0.0909  0.0291
  522UNL    CL2 2783   0.101   1.372   2.112  0.0771 -0.0473 -0.2968
  522UNL      H 2784   0.074   1.535   2.283  1.7432 -3.2110 -0.3336
  523UNL     CL 2785   1.487   2.479   0.186 -0.5003 -0.4248  0.3753
  523UNL      C 2786   1.607   2.465   0.315  0.5272 -0.2054  0.2930
  523UNL    CL1 2787   1.708   2.626   0.322 -0.0200 -0.2173  0.6507
  523UNL    CL2 2788   1.534   2.442   0.471  0.0231  0.1677  0.3792
  523UNL      H 2789   1.676   2.382   0.300  0.6443  0.1706 -1.4825
  524UNL     CL 2790   3.359   2.478   2.322  0.4187  0.1801 -0.1018
  524UNL      C 2791   3.284   2.576   2.452  0.1794  0.2310 -0.4710
  524UNL    CL1 2792   3.274   2.475   2.601 -0.0156  0.4880 -0.1340
  524UNL    CL2 2793   3.385   2.731   2.480  0.3452  0.2235 -0.0066
  524UNL      H 2794   3.179   2.601   2.430 -0.4181 -0.4759  1.3632
  525UNL     CL 2795   0.495   0.872   3.270  0.0523 -0.0955 -0.3201
  525UNL      C 2796   0.489   1.055   3.230  0.1784 -0.2602  0.0749
  525UNL    CL1 2797   0.368   1.092   3.099 -0.0459  0.2158 -0.3285
  525UNL    CL2 2798   0.459   1.164   3.380 -0.4804  0.0825 -0.1330
  525UNL      H 2799   0.586   1.080   3.185 -0.6307 -1.1547 -2.3360
  526UNL     CL 2800   3.697   2.464   3.093  0.0293 -0.0127 -0.0953
  526UNL      C 2801   3.521   2.435   3.150 -0.9671 -0.3647  0.3222
  526UNL    CL1 2802   3.507   2.278   3.236  0.1884 -0.5356 -0.2537
  526UNL    CL2 2803   3.473   2.577   3.259 -0.2167  0.0187 -0.2091
  526UNL      H 2804   3.461   2.430   3.058 -0.5031 -0.1970  0.0094
  527UNL     CL 2805   3.557   0.180   3.659  0.1154  0.3316 -0.3073
  527UNL      C 2806   3.617   0.259   3.511 -1.0030  0.4963  0.1031
  527UNL    CL1 2807   3.696   0.417   3.552 -0.1223 -0.0421 -0.0068
  527UNL    CL2 2808   3.722   0.156   3.416  0.0103  0.0357  0.0398
  527UNL      H 2809   3.530   0.283   3.450 -1.4571  1.6101  1.1580
  528UNL     CL 2810   2.418   3.840   3.698 -0.2275 -0.2127  0.2367
  528UNL      C 2811   2.286   3.821   3.809  0.3255 -0.1154 -0.4654
  528UNL    CL1 2812   2.330   3.857   3.975 -0.0562 -0.1389 -0.6899
  528UNL    CL2 2813   2.145   3.930   3.754 -0.4675 -0.1168 -0.0210
  528UNL      H 2814   2.247   3.719   3.803 -1.6609  0.6138 -0.9106
  529UNL     CL 2815   0.176   1.197   0.810  0.0145 -0.2427  0.3147
  529UNL      C 2816   0.336   1.262   0.828 -0.0993  0.7743 -0.2976
  529UNL    CL1 2817   0.439   1.171   0.946  0.2882  0.0757 -0.1103
  529UNL    CL2 2818   0.415   1.256   0.666 -0.0920 -0.4861  0.1043
  529UNL      H 2819   0.333   1.365   0.863 -0.4601  1.1037 -1.2806
   4.20779   4.20779   4.20779
