[ defaults ]
; nbfunc        comb-rule       gen-pairs       fudgeLJ fudgeQQ
 1               2               yes             0.5          0.83333333    

; Include Peptoid
#include "./nspe_10.itp"

; Include chloroform model
#include "./chloroform_320_box.itp"

; Include Ion
;#include "amber03.ff/ions.itp"

[ system ]
nspe_10 in water

[ molecules ]
; Compound        nmols
 nspe_10          1

UNL               517
