nspe_10 in water
 3226
    1H02      N    1   2.734   2.498   1.072  0.2385 -0.6700  1.0101
    1H02     C1    2   2.686   2.510   0.927 -0.0226 -0.9939  0.3307
    1H02     C2    3   2.531   2.490   0.915  0.2961  0.6907 -0.0587
    1H02     C3    4   2.722   2.649   0.872  0.8289  0.0560 -0.6633
    1H02     C4    5   2.795   2.668   0.752 -0.2296 -0.0979 -0.5465
    1H02     C5    6   2.812   2.797   0.696 -0.4374  0.1946  0.6015
    1H02     C6    7   2.775   2.912   0.777 -0.1857  0.2012  0.1475
    1H02     C7    8   2.712   2.891   0.898 -0.2072 -0.2096 -0.0778
    1H02     C8    9   2.685   2.762   0.945 -0.4560  0.2720  0.1886
    1H02     CA   10   2.743   2.353   1.120 -0.1326 -0.3614  0.1337
    1H02      C   11   2.650   2.336   1.247  0.7910  0.5909 -0.0182
    1H02      O   12   2.578   2.431   1.276 -0.1732 -0.3545  0.0291
    1H02     H1   13   2.669   2.548   1.131 -0.6394 -0.7203  0.1113
    1H02     H2   14   2.825   2.542   1.081  0.9404 -1.9034  0.3052
    1H02     H3   15   2.738   2.428   0.876  0.5878 -1.5657  1.8072
    1H02     H4   16   2.503   2.459   0.814  0.9452  0.3881 -0.1538
    1H02     H5   17   2.472   2.579   0.939  0.0391  1.2822 -2.6044
    1H02     H6   18   2.501   2.402   0.973  0.3123  0.0273 -1.0281
    1H02     H7   19   2.822   2.579   0.696  0.4721 -0.6508  0.6128
    1H02     H8   20   2.856   2.806   0.597 -0.5803  0.4996  0.5635
    1H02     H9   21   2.794   3.014   0.745 -1.2107 -0.1415 -1.6583
    1H02    H10   22   2.677   2.975   0.957  0.4043  2.4341 -3.1886
    1H02    H11   23   2.627   2.757   1.037  0.1107 -0.9970  0.5069
    1H02    H12   24   2.844   2.340   1.160  0.2163  1.7924  0.0764
    1H02    H13   25   2.710   2.282   1.044 -1.2597  0.4888 -0.2127
    2R02      N   26   2.640   2.215   1.315 -0.1242  0.7889  0.5198
    2R02     C1   27   2.702   2.088   1.262 -0.0618  0.3730 -0.0952
    2R02     H1   28   2.805   2.110   1.230 -0.5912  2.2893 -0.6175
    2R02     C2   29   2.725   1.977   1.369  0.1074 -0.0918  0.5475
    2R02     H2   30   2.629   1.949   1.414 -1.2360  0.9091 -1.5459
    2R02     H3   31   2.802   2.000   1.444  0.4502 -1.9046  0.8172
    2R02     H4   32   2.767   1.903   1.299  2.7319  1.1549  0.6888
    2R02     C3   33   2.626   2.036   1.145 -0.1671 -0.8756  0.4066
    2R02     C4   34   2.485   2.047   1.142  0.1154  0.1313 -0.4470
    2R02     H5   35   2.430   2.085   1.227 -0.1653 -1.8281  0.2947
    2R02     C5   36   2.415   1.995   1.037 -0.2622  0.1033  0.0759
    2R02     H6   37   2.307   1.995   1.029 -0.2334  0.4919 -0.3134
    2R02     C6   38   2.490   1.941   0.928  0.4791 -0.3076 -0.3858
    2R02     H7   39   2.429   1.898   0.849 -0.8485  0.0071  0.4354
    2R02     C7   40   2.628   1.946   0.926 -0.2184 -0.4696  0.1845
    2R02     H8   41   2.687   1.907   0.843  0.9137  3.5082 -1.1228
    2R02     C8   42   2.692   1.982   1.042  0.2595 -0.0138 -0.3334
    2R02     H9   43   2.800   1.970   1.049  0.1557  0.2380  3.6536
    2R02     CA   44   2.564   2.210   1.441 -0.8966 -0.1388 -0.7073
    2R02    H10   45   2.529   2.110   1.468  3.3539 -1.8711 -0.9670
    2R02    H11   46   2.474   2.274   1.433 -1.8521 -1.3743 -0.2034
    2R02      C   47   2.661   2.270   1.551  0.4059 -0.0234  1.0739
    2R02      O   48   2.758   2.325   1.512  0.1449 -0.0685 -0.1666
    3R02      N   49   2.639   2.247   1.687  0.0899 -0.2492  0.0291
    3R02     C1   50   2.733   2.311   1.791 -0.0785 -0.1370  0.1403
    3R02     H1   51   2.835   2.286   1.759 -0.7217 -0.2388 -1.9891
    3R02     C2   52   2.716   2.465   1.802 -0.2535  0.8030  0.5048
    3R02     H2   53   2.769   2.503   1.714 -1.2953 -1.0618 -1.0241
    3R02     H3   54   2.759   2.507   1.894  0.5639 -0.2175  0.6172
    3R02     H4   55   2.611   2.495   1.802 -0.7792 -0.8960 -0.5779
    3R02     C3   56   2.723   2.234   1.921 -0.0125 -0.5245 -0.3837
    3R02     C4   57   2.626   2.276   2.017  0.3389  0.2100  0.3471
    3R02     H5   58   2.551   2.351   1.994  0.6252  0.2946 -0.3392
    3R02     C5   59   2.611   2.200   2.135 -0.0645  0.1003  0.1487
    3R02     H6   60   2.530   2.230   2.201  0.5987  2.1955  0.0910
    3R02     C6   61   2.695   2.096   2.166 -0.2351  0.6120  0.5011
    3R02     H7   62   2.682   2.036   2.255 -2.4790  0.9320  0.4615
    3R02     C7   63   2.801   2.064   2.074  0.2700  0.3624  0.0295
    3R02     H8   64   2.863   1.977   2.093  0.9839 -0.7067 -5.3631
    3R02     C8   65   2.810   2.134   1.956 -0.0167  0.3733 -0.5637
    3R02     H9   66   2.891   2.103   1.891 -1.1388 -3.1230 -0.4670
    3R02     CA   67   2.503   2.185   1.740 -0.5109 -0.3111  0.1044
    3R02    H10   68   2.526   2.120   1.825  0.9826  0.7323  0.5364
    3R02    H11   69   2.462   2.117   1.665  0.6525  0.4573 -1.3044
    3R02      C   70   2.402   2.294   1.768  0.3279  0.3162 -0.2983
    3R02      O   71   2.411   2.398   1.706 -0.0435  0.3424 -0.2128
    4R02      N   72   2.289   2.261   1.845 -0.6606 -0.8604 -0.1153
    4R02     C1   73   2.171   2.355   1.843  0.0970 -0.5523 -0.4083
    4R02     H1   74   2.174   2.424   1.757 -1.0661  0.4621  0.3383
    4R02     C2   75   2.041   2.275   1.820 -0.4655  0.5329  0.2388
    4R02     H2   76   2.012   2.216   1.908 -0.2065 -0.9255 -0.6195
    4R02     H3   77   2.044   2.203   1.737 -1.4074  0.5790  0.1571
    4R02     H4   78   1.959   2.343   1.796 -1.5165 -1.1919 -1.3550
    4R02     C3   79   2.166   2.445   1.965  0.9801  0.1034 -0.2405
    4R02     C4   80   2.223   2.579   1.950  0.0784 -0.1374 -0.4621
    4R02     H5   81   2.275   2.596   1.857 -0.8319 -0.4119 -1.0310
    4R02     C5   82   2.216   2.666   2.065  0.5241  0.1625 -0.3183
    4R02     H6   83   2.261   2.764   2.057  0.9252  0.0050 -0.0245
    4R02     C6   84   2.140   2.624   2.181 -0.1640 -0.1888  0.1338
    4R02     H7   85   2.133   2.692   2.266  1.9388  1.3389 -0.8342
    4R02     C7   86   2.081   2.498   2.190 -0.0544  0.0653 -0.1558
    4R02     H8   87   2.028   2.467   2.279  1.7366  2.6453  1.9809
    4R02     C8   88   2.093   2.407   2.084 -0.5347  0.3815 -0.4493
    4R02     H9   89   2.057   2.306   2.104 -0.6490 -0.0135 -2.4863
    4R02     CA   90   2.275   2.139   1.930  0.2805  1.0155  0.2595
    4R02    H10   91   2.220   2.160   2.023 -1.5011 -2.1093  0.0221
    4R02    H11   92   2.376   2.104   1.958 -0.3208 -1.4597 -0.3991
    4R02      C   93   2.209   2.026   1.849  0.5252  0.3123 -0.4330
    4R02      O   94   2.250   2.002   1.737  0.0175 -0.6646  0.1322
    5R02      N   95   2.127   1.932   1.909 -0.6247  0.0464 -0.2190
    5R02     C1   96   2.112   1.923   2.050 -0.1433 -0.6077 -0.4930
    5R02     H1   97   2.116   2.025   2.089 -0.3684 -0.0754 -1.8146
    5R02     C2   98   1.967   1.884   2.102 -0.3188  0.1757  1.2108
    5R02     H2   99   1.951   1.903   2.209 -0.0995 -1.5088  1.5814
    5R02     H3  100   1.943   1.778   2.082  0.9711  0.1777 -0.5811
    5R02     H4  101   1.897   1.949   2.048 -0.4117  0.1886  1.3483
    5R02     C3  102   2.218   1.835   2.120  0.2589  0.0181 -0.2255
    5R02     C4  103   2.326   1.896   2.183  0.3287  0.6543 -0.1293
    5R02     H5  104   2.352   2.002   2.173 -0.1766  0.7222 -0.7308
    5R02     C5  105   2.415   1.823   2.267  0.0884 -0.6877 -0.3693
    5R02     H6  106   2.494   1.870   2.325  0.8600  0.9123 -2.5988
    5R02     C6  107   2.397   1.684   2.278 -0.2542  0.3735 -0.0232
    5R02     H7  108   2.467   1.637   2.346 -0.8557  0.3366  0.5839
    5R02     C7  109   2.291   1.616   2.218 -0.1466  0.3154  0.3323
    5R02     H8  110   2.282   1.508   2.230  3.9580 -0.2388 -0.1618
    5R02     C8  111   2.205   1.694   2.129  0.3623 -0.8229 -0.5485
    5R02     H9  112   2.117   1.650   2.084 -1.8381  1.1581  1.5795
    5R02     CA  113   2.064   1.825   1.819 -0.3237 -0.2364 -0.1698
    5R02    H10  114   2.071   1.727   1.868  1.7287  0.0308  0.1724
    5R02    H11  115   2.114   1.827   1.721  1.3321  0.5808  0.6412
    5R02      C  116   1.914   1.867   1.794  0.0024  0.6199 -0.4467
    5R02      O  117   1.891   1.980   1.795  0.7708  0.0601  0.6420
    6R02      N  118   1.819   1.775   1.761  0.4766  0.1775  0.2086
    6R02     C1  119   1.844   1.624   1.757 -0.1419  0.7649  0.7538
    6R02     H1  120   1.896   1.603   1.851  0.2764  0.1357  0.3843
    6R02     C2  121   1.712   1.541   1.767 -0.3506 -0.2258  0.2150
    6R02     H2  122   1.727   1.435   1.745  0.3963  0.0143 -0.4522
    6R02     H3  123   1.645   1.572   1.686 -1.0232  1.8145  1.4654
    6R02     H4  124   1.660   1.545   1.864 -1.6523  1.5422 -0.5083
    6R02     C3  125   1.929   1.580   1.638  0.2968 -0.7294 -0.1684
    6R02     C4  126   2.046   1.509   1.659 -0.3820 -0.8828 -0.0460
    6R02     H5  127   2.051   1.464   1.758 -1.0499 -1.3964 -0.2357
    6R02     C5  128   2.124   1.461   1.559  0.4051 -0.3134 -0.3660
    6R02     H6  129   2.205   1.393   1.581 -0.5201 -0.6069  2.4171
    6R02     C6  130   2.097   1.516   1.433 -0.3997  0.1365 -0.7692
    6R02     H7  131   2.160   1.491   1.348 -0.1481 -0.4289 -0.4259
    6R02     C7  132   2.001   1.613   1.412 -0.2912 -0.3154  0.0884
    6R02     H8  133   1.991   1.658   1.314 -0.5809  2.8330  1.4515
    6R02     C8  134   1.907   1.633   1.510 -0.2872 -0.0335 -0.0561
    6R02     H9  135   1.819   1.692   1.487 -0.0517  0.3022 -0.1002
    6R02     CA  136   1.689   1.828   1.718 -0.0903 -0.4899  0.2474
    6R02    H10  137   1.636   1.759   1.652 -1.9549 -0.7075  1.8617
    6R02    H11  138   1.713   1.917   1.658  2.5585 -1.2763 -0.0043
    6R02      C  139   1.585   1.848   1.835  0.8618  0.8695 -0.1740
    6R02      O  140   1.599   1.782   1.937 -0.3072  0.9023  0.3362
    7R02      N  141   1.477   1.943   1.836 -0.7072 -0.3773  0.2578
    7R02     C1  142   1.459   2.041   1.730  0.3679  0.7424 -0.2491
    7R02     H1  143   1.529   2.000   1.655  1.4690  0.4988  0.8859
    7R02     C2  144   1.317   2.036   1.662  0.0267 -0.2598 -0.4649
    7R02     H2  145   1.280   1.939   1.626 -1.4410 -0.2483  0.8957
    7R02     H3  146   1.305   2.102   1.575 -1.9471  0.8781  0.5915
    7R02     H4  147   1.233   2.069   1.725 -1.4455 -2.0688 -1.3939
    7R02     C3  148   1.509   2.187   1.760  1.0072 -0.4262  0.2809
    7R02     C4  149   1.432   2.284   1.832  0.8643 -0.4068 -0.0775
    7R02     H5  150   1.336   2.251   1.871 -0.0734  0.2316 -1.7241
    7R02     C5  151   1.473   2.420   1.842 -0.7232  0.5843  0.5468
    7R02     H6  152   1.415   2.494   1.896  0.0239  1.4929  0.1175
    7R02     C6  153   1.586   2.460   1.777  0.1185  0.6269 -0.2507
    7R02     H7  154   1.619   2.563   1.786  0.8178  0.3202  0.9665
    7R02     C7  155   1.667   2.366   1.714  0.5797  1.1370  0.0567
    7R02     H8  156   1.757   2.401   1.664  0.9553 -1.1945 -1.0733
    7R02     C8  157   1.627   2.228   1.700 -0.1361  0.1214  0.6957
    7R02     H9  158   1.686   2.158   1.641 -0.1632  0.7716 -0.1172
    7R02     CA  159   1.407   1.971   1.965 -0.3165  0.5345 -0.3852
    7R02    H10  160   1.348   2.063   1.957  2.1675  2.3180  0.7733
    7R02    H11  161   1.476   1.994   2.047 -0.0677  1.4879 -0.8537
    7R02      C  162   1.303   1.864   2.000 -0.1826 -0.0892 -1.0168
    7R02      O  163   1.234   1.819   1.912  0.2592  0.1443 -0.5309
    8R02      N  164   1.282   1.827   2.137 -0.4147  0.6685 -0.1187
    8R02     C1  165   1.170   1.731   2.180  0.2539  0.7845  0.2948
    8R02     H1  166   1.138   1.686   2.085  1.8056  1.1493 -0.4226
    8R02     C2  167   1.215   1.608   2.262  0.1136  0.0154 -0.3510
    8R02     H2  168   1.218   1.620   2.371  0.6537  1.5054 -0.4970
    8R02     H3  169   1.298   1.549   2.220  0.7821 -0.4936  1.5955
    8R02     H4  170   1.134   1.535   2.254  2.7780 -3.2651  0.2066
    8R02     C3  171   1.052   1.806   2.237 -0.4088  0.7779 -0.7036
    8R02     C4  172   1.058   1.840   2.373  0.7754 -0.0869 -0.0048
    8R02     H5  173   1.138   1.809   2.439  0.9637  0.7509  0.1824
    8R02     C5  174   0.957   1.923   2.426  0.4461  0.0881  0.3577
    8R02     H6  175   0.968   1.956   2.529  1.6190  3.1411 -0.6483
    8R02     C6  176   0.845   1.972   2.343 -0.3441 -0.0020  0.1826
    8R02     H7  177   0.773   2.038   2.390  0.5340 -0.2771  1.9950
    8R02     C7  178   0.847   1.934   2.211 -0.7839 -0.2427 -0.5866
    8R02     H8  179   0.770   1.973   2.146 -0.8487  2.1774  0.8254
    8R02     C8  180   0.947   1.846   2.162  0.5674  0.2516  0.0310
    8R02     H9  181   0.936   1.808   2.061 -2.4126 -3.7276  1.6088
    8R02     CA  182   1.369   1.880   2.253 -0.5949 -0.7563 -0.4857
    8R02    H10  183   1.320   1.850   2.346  2.2524  0.4134  1.5111
    8R02    H11  184   1.384   1.988   2.241 -0.5966 -0.6551  0.3733
    8R02      C  185   1.500   1.801   2.269 -0.7138 -0.7116 -0.0221
    8R02      O  186   1.516   1.692   2.226 -0.1561 -0.4494 -0.6011
    9R02      N  187   1.603   1.858   2.340 -0.2297 -0.1512  0.3800
    9R02     C1  188   1.591   1.987   2.402 -0.2699  0.0790 -0.2503
    9R02     H1  189   1.489   1.988   2.443  0.1850 -1.8280  1.0875
    9R02     C2  190   1.681   2.008   2.528 -0.3099 -0.0845 -0.3974
    9R02     H2  191   1.645   1.939   2.606  0.6321  0.6255  0.6939
    9R02     H3  192   1.654   2.102   2.578 -1.4766 -0.7776  0.3433
    9R02     H4  193   1.789   2.007   2.509 -0.6353 -3.6806 -3.2640
    9R02     C3  194   1.610   2.112   2.320 -0.9725  0.4021  1.0956
    9R02     C4  195   1.669   2.099   2.196 -0.3659 -0.3183  0.1926
    9R02     H5  196   1.708   2.004   2.162 -2.5656 -1.4992  0.8241
    9R02     C5  197   1.677   2.202   2.111 -0.6986  0.1154  0.0243
    9R02     H6  198   1.711   2.191   2.009  0.4284 -0.8026  0.4785
    9R02     C6  199   1.626   2.327   2.153 -0.5472  0.3482 -0.0966
    9R02     H7  200   1.635   2.415   2.090 -1.2267  0.3850 -0.1538
    9R02     C7  201   1.561   2.343   2.273 -0.1294 -0.4272  0.0540
    9R02     H8  202   1.528   2.442   2.302 -1.8930 -0.7010 -0.8812
    9R02     C8  203   1.556   2.235   2.366  0.3440 -0.0225  0.0731
    9R02     H9  204   1.507   2.244   2.462 -1.8616  0.5479 -1.0406
    9R02     CA  205   1.726   1.778   2.362 -0.1878 -0.6812  0.1075
    9R02    H10  206   1.816   1.829   2.397  0.8434 -2.5383  0.3321
    9R02    H11  207   1.763   1.751   2.262 -2.1585 -1.7858 -0.3704
    9R02      C  208   1.697   1.652   2.450  0.1610  0.1854 -0.1361
    9R02      O  209   1.611   1.650   2.536 -0.0586  0.3527 -0.1492
   10R02      N  210   1.762   1.534   2.419  0.0046 -0.0266  0.6966
   10R02     C1  211   1.711   1.402   2.477 -0.0547 -0.1932 -0.1220
   10R02     H1  212   1.673   1.412   2.579 -0.2878 -2.1439  0.0354
   10R02     C2  213   1.589   1.343   2.402  0.7250  0.1021  0.1301
   10R02     H2  214   1.608   1.311   2.299 -2.3089 -1.8560  0.0790
   10R02     H3  215   1.500   1.408   2.406  0.6416 -0.0821  1.4913
   10R02     H4  216   1.562   1.244   2.440  0.9399  0.0114  0.0524
   10R02     C3  217   1.826   1.303   2.510 -0.5927  0.1082 -0.0914
   10R02     C4  218   1.848   1.186   2.449  0.5255  1.5488  0.0401
   10R02     H5  219   1.785   1.150   2.368  0.6461  0.1775  0.5248
   10R02     C5  220   1.945   1.098   2.490 -0.2242 -0.5057  0.3418
   10R02     H6  221   1.960   1.013   2.424  1.0235  1.1150 -1.5894
   10R02     C6  222   2.028   1.128   2.596  0.0900  0.0669  0.1199
   10R02     H7  223   2.101   1.060   2.638  0.9337  0.8720 -0.0046
   10R02     C7  224   2.013   1.253   2.654  0.2460  0.1397 -0.4786
   10R02     H8  225   2.083   1.289   2.728 -0.7569  2.9278 -0.7491
   10R02     C8  226   1.912   1.343   2.610 -0.1240 -0.0961 -0.4627
   10R02     H9  227   1.889   1.440   2.651 -0.3292  0.1381 -1.1101
   10R02     CA  228   1.878   1.525   2.327 -0.6277 -0.7093  0.2934
   10R02    H10  229   1.958   1.457   2.357  2.3906  0.6238 -3.8854
   10R02    H11  230   1.940   1.615   2.327 -1.2878 -0.2516  0.0233
   10R02      C  231   1.839   1.480   2.178  0.3487 -0.6490  0.0038
   10R02      O  232   1.923   1.442   2.098  0.1399  0.6740 -0.2335
   11NH2      N  233   1.703   1.484   2.139 -0.5665  0.3017  0.4864
   11NH2     H1  234   1.629   1.534   2.185 -0.7978  2.7903 -2.3124
   11NH2     H2  235   1.697   1.455   2.042 -1.9223  1.3511  0.2353
   12CHL     CL  236   1.210   0.764   2.266  0.3634 -0.5050 -0.1150
   12CHL      C  237   1.305   0.697   2.405 -0.3118  0.6475 -0.0098
   12CHL    CL1  238   1.197   0.667   2.549 -0.4367 -0.3636 -0.2434
   12CHL    CL2  239   1.389   0.547   2.348 -0.0277  0.2314  0.2003
   12CHL      H  240   1.384   0.763   2.439 -0.3401  0.4189  0.5127
   13CHL     CL  241   3.557   1.996   0.923  0.3336 -0.4534  0.1580
   13CHL      C  242   3.725   1.958   0.991  0.8785  0.0262  0.0661
   13CHL    CL1  243   3.761   1.787   0.966 -0.3877  0.0668  0.1446
   13CHL    CL2  244   3.831   2.070   0.914  0.2075 -0.2196 -0.3202
   13CHL      H  245   3.720   1.979   1.098 -2.1850  2.6871 -0.4388
   14CHL     CL  246   4.131   0.160   1.786 -0.3508 -0.0412 -0.1427
   14CHL      C  247   4.023   0.056   1.695 -0.7117  0.3521 -0.0119
   14CHL    CL1  248   3.981   0.144   1.542  0.1161  0.2192  0.0694
   14CHL    CL2  249   4.094  -0.112   1.659  0.1012 -0.2033  0.0865
   14CHL      H  250   3.929   0.048   1.750 -0.5545  0.9618  0.3569
   15CHL     CL  251   0.205   1.170   3.228  0.1284  0.1178 -0.1923
   15CHL      C  252   0.078   1.188   3.352  0.1049  0.5090  0.3840
   15CHL    CL1  253   0.037   1.018   3.410 -0.3301 -0.4747  0.1154
   15CHL    CL2  254   0.151   1.273   3.481  0.1698  0.2207  0.1740
   15CHL      H  255  -0.008   1.242   3.312 -0.1941 -0.7918 -0.7969
   16CHL     CL  256   0.489   0.333   0.470 -0.0067  0.0717 -0.2264
   16CHL      C  257   0.499   0.168   0.542  0.4105 -0.3080 -0.5307
   16CHL    CL1  258   0.650   0.081   0.508  0.3184 -0.0087  0.3521
   16CHL    CL2  259   0.473   0.183   0.725 -0.2261 -0.2433 -0.0129
   16CHL      H  260   0.417   0.115   0.492  0.5938  1.1475 -2.4731
   17CHL     CL  261   3.207   4.284   2.579  0.0808  0.0215  0.2468
   17CHL      C  262   3.357   4.175   2.538  0.4868  0.4054 -0.0289
   17CHL    CL1  263   3.506   4.268   2.578  0.2175  0.0964 -0.0060
   17CHL    CL2  264   3.337   4.013   2.633 -0.1511 -0.0209  0.2940
   17CHL      H  265   3.361   4.156   2.430 -0.0630 -0.1778  0.0511
   18CHL     CL  266   3.762   1.495   2.599 -0.2565  0.1334  0.1705
   18CHL      C  267   3.606   1.508   2.508  0.7997  0.2436  0.1076
   18CHL    CL1  268   3.623   1.613   2.357  0.2904 -0.0115  0.0964
   18CHL    CL2  269   3.554   1.349   2.459  0.0669 -0.0793 -0.0025
   18CHL      H  270   3.529   1.546   2.576  1.7152  0.0913  1.2751
   19CHL     CL  271   1.975   2.847   1.391 -0.2398 -0.3329 -0.1082
   19CHL      C  272   1.852   2.957   1.315  0.4584  0.5767 -0.6499
   19CHL    CL1  273   1.709   2.976   1.416 -0.2715  0.2696 -0.2874
   19CHL    CL2  274   1.916   3.122   1.262 -0.0677 -0.0095 -0.1790
   19CHL      H  275   1.816   2.913   1.221 -1.7241  1.8039 -0.4433
   20CHL     CL  276   3.387   3.293   0.303  0.0769  0.1812  0.0703
   20CHL      C  277   3.407   3.124   0.245  0.0576 -0.2606 -0.6531
   20CHL    CL1  278   3.512   3.111   0.105  0.4403 -0.1241 -0.1288
   20CHL    CL2  279   3.480   3.017   0.385 -0.3985 -0.0443 -0.7028
   20CHL      H  280   3.304   3.091   0.229 -0.2988  0.4607  0.0743
   21CHL     CL  281   2.880   1.492   2.789  0.2112 -0.3719  0.0813
   21CHL      C  282   2.839   1.479   2.965  0.6380 -0.2860 -0.2611
   21CHL    CL1  283   2.802   1.638   3.039 -0.4372  0.1550  0.5400
   21CHL    CL2  284   2.684   1.393   2.985 -0.4492 -0.0571  0.1059
   21CHL      H  285   2.914   1.433   3.031  0.2017  0.1989  0.5913
   22CHL     CL  286   0.539   1.780   2.209  0.3049  0.0970 -0.0816
   22CHL      C  287   0.466   1.875   2.347  0.5479 -0.1154  0.3585
   22CHL    CL1  288   0.359   2.012   2.287  0.2779  0.0373  0.2480
   22CHL    CL2  289   0.368   1.758   2.453  0.2167 -0.0674 -0.1122
   22CHL      H  290   0.544   1.923   2.407  0.5301 -1.3315  1.3793
   23CHL     CL  291   2.487   1.747   1.601  0.2946 -0.1439 -0.2436
   23CHL      C  292   2.498   1.659   1.759 -0.0277 -0.2376 -0.8845
   23CHL    CL1  293   2.568   1.769   1.883  0.4482 -0.0254 -0.3035
   23CHL    CL2  294   2.338   1.611   1.816  0.1383 -0.1072 -0.1119
   23CHL      H  295   2.558   1.567   1.760 -1.0216 -0.9221  0.6956
   24CHL     CL  296   1.500   3.047   1.852  0.1200 -0.2421 -0.2262
   24CHL      C  297   1.341   3.132   1.898 -0.3601  0.3403  0.1381
   24CHL    CL1  298   1.238   3.024   2.001 -0.3049  0.0594 -0.1202
   24CHL    CL2  299   1.389   3.287   1.980  0.0223 -0.2639  0.8047
   24CHL      H  300   1.289   3.140   1.801 -0.1403 -2.1499 -0.2531
   25CHL     CL  301   4.188   2.577   0.349  0.0937  0.1147 -0.1377
   25CHL      C  302   4.116   2.667   0.216 -0.0940  0.3776 -0.6802
   25CHL    CL1  303   4.248   2.703   0.097 -0.2313  0.1912 -0.1107
   25CHL    CL2  304   3.998   2.575   0.120  0.3090  0.0106 -0.2834
   25CHL      H  305   4.070   2.760   0.251  1.1603  1.2666 -1.3075
   26CHL     CL  306   1.467   1.821   1.408  0.5069  0.0755 -0.0762
   26CHL      C  307   1.450   1.696   1.286  0.5223  0.8147  0.0822
   26CHL    CL1  308   1.351   1.748   1.147 -0.1161 -0.1458 -0.2344
   26CHL    CL2  309   1.610   1.622   1.233  0.1566  0.2563  0.1286
   26CHL      H  310   1.398   1.614   1.336  1.4876  0.0971 -0.0577
   27CHL     CL  311   1.300   1.962   3.626  0.2688  0.1425  0.2064
   27CHL      C  312   1.135   1.986   3.679  0.2342  1.1319  0.4185
   27CHL    CL1  313   1.090   2.162   3.654 -0.2828 -0.3018 -0.2458
   27CHL    CL2  314   1.033   1.871   3.575 -0.1788 -0.2560 -0.4425
   27CHL      H  315   1.132   1.946   3.781 -2.1574  0.2784  0.0638
   28CHL     CL  316   3.129   3.812   1.779 -0.0055  0.2030  0.0572
   28CHL      C  317   3.201   3.922   1.654  0.1535  0.5788 -0.0463
   28CHL    CL1  318   3.062   4.026   1.598  0.0681  0.0401  0.3512
   28CHL    CL2  319   3.329   4.011   1.729 -0.1551  0.0239 -0.6431
   28CHL      H  320   3.244   3.861   1.575  0.8379  2.4096 -1.1428
   29CHL     CL  321   1.426   4.167   0.550 -0.0980 -0.4066 -0.2637
   29CHL      C  322   1.443   4.220   0.712 -0.2197 -0.0162 -0.2253
   29CHL    CL1  323   1.606   4.181   0.761 -0.1470 -0.0819 -0.5309
   29CHL    CL2  324   1.416   4.399   0.714 -0.0250 -0.1417  0.1618
   29CHL      H  325   1.369   4.167   0.773 -1.1425  0.8397 -0.5669
   30CHL     CL  326   3.379   1.683   0.835  0.4320  0.2100  0.4469
   30CHL      C  327   3.460   1.739   0.681 -0.2365 -0.1685 -0.4916
   30CHL    CL1  328   3.558   1.605   0.609  0.1561  0.2143 -0.2256
   30CHL    CL2  329   3.335   1.799   0.570  0.3091 -0.1594  0.3375
   30CHL      H  330   3.532   1.810   0.722  0.6606 -2.3181  1.9088
   31CHL     CL  331   2.046   1.115   0.071 -0.1778 -0.4040  0.2016
   31CHL      C  332   1.934   1.118  -0.070 -0.7071 -0.2877  0.1527
   31CHL    CL1  333   1.914   0.958  -0.145 -0.0629 -0.2714  0.1032
   31CHL    CL2  334   1.775   1.170  -0.013 -0.0973 -0.1366  0.0025
   31CHL      H  335   1.980   1.190  -0.139 -0.6635  2.1026  2.4784
   32CHL     CL  336   2.149   2.224   0.856  0.0233  0.0566  0.1267
   32CHL      C  337   2.095   2.276   1.015 -0.8335 -0.5056 -0.5910
   32CHL    CL1  338   2.059   2.126   1.110  0.3205 -0.7536  0.2442
   32CHL    CL2  339   2.232   2.359   1.094 -0.2204  0.3790 -0.0756
   32CHL      H  340   2.009   2.342   1.011  0.2048  0.8340 -3.0818
   33CHL     CL  341   0.269   0.489   2.309 -0.3250 -0.2210  0.0943
   33CHL      C  342   0.429   0.411   2.285 -0.5299 -0.0338  0.4363
   33CHL    CL1  343   0.514   0.493   2.152 -0.1754 -0.0475  0.0749
   33CHL    CL2  344   0.529   0.421   2.429 -0.7235  0.0484  0.2309
   33CHL      H  345   0.424   0.306   2.254 -0.2265 -0.1655  0.8262
   34CHL     CL  346   0.150   0.640   3.262 -0.0943  0.3722  0.0477
   34CHL      C  347  -0.004   0.571   3.327  0.3407  0.2286  0.3464
   34CHL    CL1  348  -0.017   0.583   3.504 -0.0372 -0.0169  0.3263
   34CHL    CL2  349  -0.143   0.630   3.231  0.1512 -0.0500 -0.1025
   34CHL      H  350  -0.000   0.463   3.307 -0.9724  0.3535 -0.6951
   35CHL     CL  351   1.674   2.361   1.121 -0.3851 -0.1217  0.3113
   35CHL      C  352   1.571   2.219   1.159 -0.0983  0.1335 -0.4961
   35CHL    CL1  353   1.521   2.214   1.340 -0.2140 -0.1089  0.2092
   35CHL    CL2  354   1.425   2.217   1.060 -0.3245  0.0112 -0.3600
   35CHL      H  355   1.626   2.130   1.127 -1.0654 -1.9541  3.0646
   36CHL     CL  356   2.824   0.869   2.198 -0.1831  0.2283 -0.4512
   36CHL      C  357   2.878   0.708   2.260  0.4313  1.1834  0.0527
   36CHL    CL1  358   2.749   0.590   2.223 -0.1169  0.1628 -0.2059
   36CHL    CL2  359   3.033   0.675   2.182  0.4940  0.1216  0.5613
   36CHL      H  360   2.897   0.711   2.367  0.6692  0.2043  0.0537
   37CHL     CL  361   0.941   2.891   1.889  0.1344 -0.0919  0.1877
   37CHL      C  362   0.899   2.848   2.062 -0.6456 -0.1011 -0.0375
   37CHL    CL1  363   0.751   2.748   2.055  0.1222  0.0001  0.1166
   37CHL    CL2  364   1.025   2.746   2.141  0.2445 -0.3906 -0.2152
   37CHL      H  365   0.883   2.938   2.122 -1.0998  0.0942 -0.4534
   38CHL     CL  366   4.373   2.149   0.727 -0.1048 -0.1679  0.6375
   38CHL      C  367   4.403   2.328   0.680  0.0281 -0.1032 -0.1452
   38CHL    CL1  368   4.439   2.353   0.504  0.0285 -0.0181  0.1360
   38CHL    CL2  369   4.238   2.424   0.711  0.0469 -0.0591 -0.1507
   38CHL      H  370   4.479   2.380   0.739  1.4949 -1.6337 -0.6262
   39CHL     CL  371   0.961   0.486   3.945 -0.4237 -0.0887  0.0642
   39CHL      C  372   0.849   0.481   3.794  0.1212 -0.9524  0.0134
   39CHL    CL1  373   0.749   0.333   3.801  0.4091  0.2284 -0.2122
   39CHL    CL2  374   0.737   0.627   3.809  0.2504 -0.2243  0.1362
   39CHL      H  375   0.901   0.495   3.699  1.4954 -0.3418  0.8278
   40CHL     CL  376   0.087   0.375   3.801 -0.3710  0.2788 -0.1996
   40CHL      C  377   0.176   0.482   3.906  0.1965 -0.4975 -0.1519
   40CHL    CL1  378   0.104   0.474   4.072  0.2246  0.1090  0.1642
   40CHL    CL2  379   0.344   0.436   3.918 -0.2551 -0.1495  0.0271
   40CHL      H  380   0.172   0.579   3.855 -2.5548  0.7263  2.1565
   41CHL     CL  381   2.038   3.620   3.980 -0.3475 -0.0897 -0.1711
   41CHL      C  382   2.166   3.667   4.102 -0.1775  0.4972 -0.5589
   41CHL    CL1  383   2.203   3.842   4.097 -0.1461 -0.0557 -0.0724
   41CHL    CL2  384   2.144   3.617   4.277 -0.0493 -0.1768 -0.1285
   41CHL      H  385   2.259   3.611   4.089  1.3755  2.6830  0.4212
   42CHL     CL  386   4.178   0.957   1.500  0.4462  0.0293 -0.3145
   42CHL      C  387   4.259   1.079   1.592  0.6761 -0.4674 -0.1475
   42CHL    CL1  388   4.434   1.078   1.567  0.1851 -0.0243 -0.3705
   42CHL    CL2  389   4.187   1.238   1.532 -0.3351  0.3269  0.2722
   42CHL      H  390   4.236   1.068   1.698 -2.2214 -1.2794 -0.7531
   43CHL     CL  391   2.363   3.470   0.807  0.0037  0.0228  0.5928
   43CHL      C  392   2.347   3.644   0.762  0.1222  0.2700  0.3634
   43CHL    CL1  393   2.515   3.707   0.730 -0.5118  0.6340  0.3510
   43CHL    CL2  394   2.231   3.666   0.616  0.0854  0.1542  0.1020
   43CHL      H  395   2.315   3.703   0.849 -1.8004 -1.4644  0.8908
   44CHL     CL  396   0.811   0.044   1.719 -0.0038  0.2076  0.1215
   44CHL      C  397   0.927  -0.062   1.798  0.3907 -0.6762  0.6344
   44CHL    CL1  398   0.881  -0.231   1.762  0.2104  0.0931  0.0060
   44CHL    CL2  399   1.085  -0.034   1.723 -0.1443  0.3297 -0.0937
   44CHL      H  400   0.934  -0.052   1.907 -2.8357  0.6348  0.8461
   45CHL     CL  401   3.633   1.587   4.124 -0.0924 -0.1491  0.2202
   45CHL      C  402   3.479   1.535   4.051  0.1157 -0.6698  0.5245
   45CHL    CL1  403   3.349   1.532   4.179  0.1816  0.0882 -0.3395
   45CHL    CL2  404   3.423   1.625   3.905 -0.2599 -0.1040  0.1256
   45CHL      H  405   3.502   1.435   4.012 -0.7460 -0.3862 -0.7497
   46CHL     CL  406   1.250   2.188   2.450 -0.1359  0.3742  0.0485
   46CHL      C  407   1.171   2.258   2.313 -0.0380  0.4252 -0.6400
   46CHL    CL1  408   1.207   2.426   2.325  0.5007 -0.0023 -0.1492
   46CHL    CL2  409   1.234   2.179   2.168  0.1316  0.1983 -0.4882
   46CHL      H  410   1.065   2.234   2.323  0.2094 -0.2111  0.5781
   47CHL     CL  411   0.940   1.490   2.500  0.1139  0.0086 -0.3056
   47CHL      C  412   0.856   1.529   2.657 -0.5166 -0.6220 -0.6185
   47CHL    CL1  413   0.703   1.612   2.629  0.1461  0.0255 -0.0942
   47CHL    CL2  414   0.831   1.380   2.764  0.2762 -0.0451 -0.2928
   47CHL      H  415   0.923   1.587   2.721  0.5139 -2.1084 -0.2911
   48CHL     CL  416   2.146   1.860   0.707 -0.3004  0.3422  0.6042
   48CHL      C  417   1.968   1.820   0.745  0.1725  0.7855 -0.1920
   48CHL    CL1  418   1.904   1.706   0.614  0.1875  0.3533 -0.2982
   48CHL    CL2  419   1.962   1.738   0.901 -0.2846 -0.2638 -0.5804
   48CHL      H  420   1.916   1.917   0.744  2.1319  1.8949 -0.5397
   49CHL     CL  421   3.568   4.152   1.149  0.1159 -0.0682 -0.0273
   49CHL      C  422   3.687   4.232   1.038 -0.1623  0.2308  0.0251
   49CHL    CL1  423   3.858   4.183   1.082 -0.2937 -0.1267 -0.0177
   49CHL    CL2  424   3.650   4.194   0.859  0.0160  0.3062  0.2969
   49CHL      H  425   3.668   4.339   1.047 -1.2671  0.1316 -0.8917
   50CHL     CL  426   2.736   0.973   4.121 -0.7366  0.1971  0.0690
   50CHL      C  427   2.706   1.134   4.044  0.2104 -0.3796 -0.4648
   50CHL    CL1  428   2.638   1.112   3.882 -0.1694  0.1718 -0.2299
   50CHL    CL2  429   2.582   1.233   4.126 -0.2782  0.2147 -0.2874
   50CHL      H  430   2.797   1.193   4.026  0.5341  0.0002  2.0750
   51CHL     CL  431   2.417   1.266   0.937 -0.4172  0.0841  0.0327
   51CHL      C  432   2.278   1.364   0.899 -0.3750  0.5764  0.0786
   51CHL    CL1  433   2.197   1.414   1.049 -0.2042 -0.2999 -0.2670
   51CHL    CL2  434   2.322   1.499   0.793  0.1227 -0.3281  0.2276
   51CHL      H  435   2.207   1.304   0.841 -0.2340  1.0415 -0.5946
   52CHL     CL  436   3.281   2.530   1.891 -0.0932 -0.1424 -0.0139
   52CHL      C  437   3.436   2.562   1.815  0.3572 -0.2209 -0.8180
   52CHL    CL1  438   3.525   2.662   1.940 -0.0681 -0.1944  0.1055
   52CHL    CL2  439   3.503   2.412   1.766 -0.3169 -0.0797 -0.0454
   52CHL      H  440   3.415   2.632   1.733 -1.5617  1.0555  0.6482
   53CHL     CL  441   2.957   1.674   0.896  0.2004  0.1609 -0.1267
   53CHL      C  442   2.839   1.541   0.874 -0.2595  0.5255 -0.4925
   53CHL    CL1  443   2.668   1.596   0.851 -0.4347  0.3019 -0.1624
   53CHL    CL2  444   2.895   1.424   0.751 -0.2688 -0.2427  0.0469
   53CHL      H  445   2.841   1.474   0.960  0.0692 -1.3866 -1.9245
   54CHL     CL  446   3.346   3.913   3.563  0.3742  0.3384  0.2309
   54CHL      C  447   3.354   3.734   3.596  0.5965 -0.1246  0.8149
   54CHL    CL1  448   3.193   3.666   3.567  0.4886  0.6935 -0.2911
   54CHL    CL2  449   3.483   3.638   3.491  0.0719  0.1170 -0.3818
   54CHL      H  450   3.379   3.717   3.701  0.9556 -0.6545  0.6511
   55CHL     CL  451   4.188   3.527   0.438  0.2106 -0.2857  0.1125
   55CHL      C  452   4.293   3.463   0.573 -0.1975  0.6650 -0.0013
   55CHL    CL1  453   4.295   3.594   0.689 -0.1650  0.1338  0.0085
   55CHL    CL2  454   4.224   3.314   0.652  0.2277  0.1392 -0.1765
   55CHL      H  455   4.390   3.441   0.527 -0.2161  1.6546 -0.5509
   56CHL     CL  456   1.337   2.671   3.657 -0.2317 -0.2877 -0.5057
   56CHL      C  457   1.346   2.659   3.842 -0.0560 -0.4387  0.3720
   56CHL    CL1  458   1.448   2.521   3.870 -0.1537  0.4166  0.3211
   56CHL    CL2  459   1.420   2.806   3.893  0.4222 -0.1840 -0.2842
   56CHL      H  460   1.250   2.639   3.892 -0.5466  3.1833  1.1303
   57CHL     CL  461   2.546   0.768   2.454 -0.4019 -0.0595 -0.0809
   57CHL      C  462   2.401   0.848   2.393 -1.0063 -0.0245 -0.0767
   57CHL    CL1  463   2.435   0.905   2.230  0.1230 -0.3464 -0.1106
   57CHL    CL2  464   2.275   0.721   2.376  0.0512  0.3518  0.0960
   57CHL      H  465   2.375   0.925   2.466 -0.5520 -0.3383  0.4199
   58CHL     CL  466   1.927   2.913   2.889  0.1587  0.0968  0.2319
   58CHL      C  467   1.905   2.983   2.722  0.0849 -0.0733 -0.4114
   58CHL    CL1  468   1.739   3.020   2.670 -0.0756  0.2390  0.3893
   58CHL    CL2  469   1.995   3.135   2.713  0.2337  0.2809 -0.4560
   58CHL      H  470   1.957   2.917   2.652 -0.0243 -0.0120 -0.5507
   59CHL     CL  471   4.181   3.952   0.493  0.1661 -0.1978 -0.0032
   59CHL      C  472   4.002   3.932   0.480 -0.1317  0.5544 -0.8752
   59CHL    CL1  473   3.930   3.946   0.640 -0.1179  0.0262 -0.2713
   59CHL    CL2  474   3.933   4.046   0.354  0.1803  0.3882  0.2628
   59CHL      H  475   3.994   3.828   0.446  2.4354  0.1047 -0.3416
   60CHL     CL  476   0.297   0.194   1.008  0.0892  0.4770  0.1340
   60CHL      C  477   0.180   0.149   0.875 -0.1426  0.6309 -0.0729
   60CHL    CL1  478   0.207  -0.019   0.820 -0.1953 -0.3626  0.0982
   60CHL    CL2  479   0.024   0.166   0.960  0.1009  0.1768 -0.5158
   60CHL      H  480   0.186   0.226   0.797 -0.7147  1.5114  0.7336
   61CHL     CL  481   0.800   2.366   2.255 -0.5014 -0.0009  0.0129
   61CHL      C  482   0.660   2.383   2.132  0.0829 -0.0352  0.0618
   61CHL    CL1  483   0.654   2.241   2.023  0.1247 -0.0384 -0.2008
   61CHL    CL2  484   0.509   2.394   2.221 -0.2321 -0.1217 -0.1161
   61CHL      H  485   0.669   2.476   2.075 -0.1544 -0.1140 -0.1047
   62CHL     CL  486   2.914   0.611   2.959 -0.1869  0.1733  0.3643
   62CHL      C  487   2.870   0.465   2.867 -1.0729  0.4675  0.4452
   62CHL    CL1  488   2.739   0.375   2.949 -0.0474  0.0338  0.1453
   62CHL    CL2  489   2.786   0.518   2.724 -0.2187  0.0751  0.2730
   62CHL      H  490   2.963   0.408   2.853 -2.3453 -1.7013  0.3555
   63CHL     CL  491   3.304   1.708   2.970  0.4995 -0.2055  0.1150
   63CHL      C  492   3.225   1.719   3.129  0.0453 -0.1361 -0.2937
   63CHL    CL1  493   3.088   1.834   3.110  0.1231 -0.1911  0.2747
   63CHL    CL2  494   3.144   1.565   3.172 -0.1862 -0.1253 -0.2715
   63CHL      H  495   3.300   1.752   3.202  0.0111  1.0404 -0.7650
   64CHL     CL  496   3.660   3.066   1.067  0.0014  0.3492 -0.1367
   64CHL      C  497   3.752   3.054   1.228  0.6562  0.2737 -0.0585
   64CHL    CL1  498   3.916   3.092   1.197 -0.0257 -0.1143  0.2659
   64CHL    CL2  499   3.684   3.176   1.344 -0.3488  0.0248  0.1809
   64CHL      H  500   3.735   2.953   1.264  2.0176 -0.8667 -2.3769
   65CHL     CL  501   2.587   3.132   3.935 -0.7473  0.1973  0.2939
   65CHL      C  502   2.640   3.192   4.092  0.2842 -0.2250  0.2730
   65CHL    CL1  503   2.508   3.278   4.178  0.0257 -0.3124  0.3392
   65CHL    CL2  504   2.702   3.062   4.204  0.1459 -0.0337 -0.8937
   65CHL      H  505   2.723   3.262   4.077  0.6361 -0.4900  0.9455
   66CHL     CL  506   2.975   1.668   1.591  0.2523  0.0712 -0.1563
   66CHL      C  507   2.994   1.689   1.763 -0.0652  0.1235  0.1406
   66CHL    CL1  508   2.925   1.845   1.811  0.2962 -0.0877 -0.8572
   66CHL    CL2  509   2.915   1.561   1.852 -0.1991  0.0040  0.3756
   66CHL      H  510   3.102   1.697   1.777  0.0979 -1.7748  0.2415
   67CHL     CL  511   3.276   1.662   2.328  0.0211  0.0705  0.2214
   67CHL      C  512   3.280   1.779   2.190  0.1615  0.2800  0.4882
   67CHL    CL1  513   3.389   1.686   2.074  0.0591 -0.3171  0.2311
   67CHL    CL2  514   3.122   1.805   2.113 -0.0767  0.3421 -0.2626
   67CHL      H  515   3.328   1.873   2.222  2.1672 -0.0658 -1.2354
   68CHL     CL  516   2.097   2.854   1.773  0.0519  0.1740  0.1710
   68CHL      C  517   1.931   2.847   1.829 -0.0682  0.0639  0.7262
   68CHL    CL1  518   1.850   2.998   1.797 -0.2012 -0.1672  0.1166
   68CHL    CL2  519   1.847   2.711   1.739 -0.0005  0.2843  0.0346
   68CHL      H  520   1.919   2.818   1.934 -3.8412  1.0384  0.7228
   69CHL     CL  521   3.086   2.521   3.463  0.4164  0.0423 -0.3099
   69CHL      C  522   3.217   2.415   3.519  0.1155 -0.0427 -0.2384
   69CHL    CL1  523   3.337   2.378   3.388  0.1022  0.2167  0.5600
   69CHL    CL2  524   3.305   2.488   3.656  0.0718 -0.1310 -0.0204
   69CHL      H  525   3.186   2.320   3.564  1.6253  0.6092  2.4327
   70CHL     CL  526   0.845   2.615   1.375 -0.0891  0.1847  0.2509
   70CHL      C  527   0.968   2.745   1.357 -0.0010  0.2816 -0.6551
   70CHL    CL1  528   0.931   2.861   1.231  0.3680  0.3003  0.3369
   70CHL    CL2  529   1.024   2.833   1.506  0.0125 -0.0403 -0.4762
   70CHL      H  530   1.061   2.691   1.336 -0.0289 -0.2039  0.3902
   71CHL     CL  531   0.229   1.858   3.198  0.0617  0.1535 -0.0140
   71CHL      C  532   0.354   1.760   3.116 -0.0882  0.2241 -0.2648
   71CHL    CL1  533   0.522   1.806   3.165 -0.3658  0.4719  0.2437
   71CHL    CL2  534   0.308   1.590   3.146 -0.2259 -0.0046 -0.0630
   71CHL      H  535   0.351   1.777   3.008  1.7575 -1.9556 -0.7454
   72CHL     CL  536   1.207   3.789   4.119 -0.7119 -0.1614  0.1297
   72CHL      C  537   1.186   3.913   3.993 -1.1539 -0.1602  0.1778
   72CHL    CL1  538   1.031   3.894   3.902 -0.1940 -0.4996  0.3648
   72CHL    CL2  539   1.192   4.084   4.066 -0.0007  0.1660 -0.4655
   72CHL      H  540   1.276   3.905   3.931 -0.3622  2.1835  0.9339
   73CHL     CL  541   4.336   3.235   2.100 -0.3902  0.1939  0.2564
   73CHL      C  542   4.445   3.101   2.131 -0.6795 -0.2968  0.4003
   73CHL    CL1  543   4.627   3.160   2.123 -0.3306  0.0775 -0.1788
   73CHL    CL2  544   4.421   3.017   2.276 -0.1252 -0.0255 -0.0624
   73CHL      H  545   4.421   3.035   2.047  2.0407  0.1701 -0.8809
   74CHL     CL  546   1.339   3.893   0.843  0.0237 -0.2735 -0.1394
   74CHL      C  547   1.278   3.838   0.685  0.4263  1.1293 -0.1005
   74CHL    CL1  548   1.168   3.970   0.628 -0.1058 -0.0201  0.0705
   74CHL    CL2  549   1.413   3.798   0.567  0.1787 -0.0513 -0.1613
   74CHL      H  550   1.226   3.746   0.713  0.3951  2.1594  3.7384
   75CHL     CL  551   0.561   2.629   2.709 -0.2751  0.1242  0.3662
   75CHL      C  552   0.614   2.584   2.875  0.4665 -0.4243  0.3298
   75CHL    CL1  553   0.506   2.673   2.984 -0.1159 -0.2555  0.0737
   75CHL    CL2  554   0.611   2.410   2.906 -0.2582  0.1454  0.4874
   75CHL      H  555   0.716   2.619   2.892  1.1631 -2.0764 -0.2307
   76CHL     CL  556   0.772   2.839   0.371 -0.2156 -0.2931 -0.4576
   76CHL      C  557   0.728   2.993   0.457  0.2208 -0.0227  0.0604
   76CHL    CL1  558   0.621   2.948   0.598  0.4442  0.3798 -0.2806
   76CHL    CL2  559   0.875   3.096   0.502  0.0674 -0.3933 -0.1744
   76CHL      H  560   0.667   3.049   0.386  0.8888 -0.0955 -0.5839
   77CHL     CL  561   1.982   3.999   0.341  0.2347 -0.0114 -0.1704
   77CHL      C  562   1.922   4.057   0.502 -0.1987  0.3028 -0.1441
   77CHL    CL1  563   1.834   4.207   0.480  0.0968  0.0487 -0.2772
   77CHL    CL2  564   1.815   3.932   0.567  0.0350 -0.6829 -0.0598
   77CHL      H  565   2.006   4.067   0.572 -0.2795 -0.8358  0.1407
   78CHL     CL  566   2.907   0.279   0.299  0.1117 -0.0423  0.0377
   78CHL      C  567   3.048   0.310   0.206 -0.1685  0.0360 -0.2412
   78CHL    CL1  568   3.195   0.229   0.283 -0.3640  0.0884 -0.3514
   78CHL    CL2  569   3.022   0.267   0.031  0.1850 -0.1550 -0.0790
   78CHL      H  570   3.067   0.418   0.210 -1.1498  0.1934  0.6728
   79CHL     CL  571   3.187   0.461   2.764  0.1219  0.2547  0.1440
   79CHL      C  572   3.306   0.593   2.752 -0.1127 -0.4675  0.2554
   79CHL    CL1  573   3.475   0.521   2.720  0.0218  0.4137 -0.1457
   79CHL    CL2  574   3.268   0.703   2.623  0.1382 -0.1199 -0.2651
   79CHL      H  575   3.303   0.652   2.845  2.3979 -3.4721  2.4540
   80CHL     CL  576   2.692   0.876   3.459  0.6371  0.4680 -0.1229
   80CHL      C  577   2.730   0.974   3.307 -0.1851 -0.3301 -0.0916
   80CHL    CL1  578   2.718   0.880   3.159 -0.0644  0.2439  0.1298
   80CHL    CL2  579   2.610   1.112   3.302  0.1571  0.2821 -0.2932
   80CHL      H  580   2.831   1.017   3.300  0.0972 -1.0453 -0.5411
   81CHL     CL  581   1.382   1.639   1.688 -0.1881  0.0615  0.0121
   81CHL      C  582   1.197   1.636   1.678 -0.5852 -0.0114  0.1751
   81CHL    CL1  583   1.147   1.630   1.513  0.1855  0.0129  0.0160
   81CHL    CL2  584   1.118   1.506   1.786 -0.2306 -0.2132 -0.1479
   81CHL      H  585   1.173   1.738   1.711 -1.6019  0.5545 -2.1360
   82CHL     CL  586   1.590   1.233   1.523 -0.3847 -0.6449 -0.0460
   82CHL      C  587   1.493   1.078   1.561 -0.0257 -0.6409  0.5983
   82CHL    CL1  588   1.599   0.934   1.572 -0.1541 -0.2450 -0.0843
   82CHL    CL2  589   1.413   1.105   1.716  0.3413 -0.0121 -0.1869
   82CHL      H  590   1.417   1.071   1.482 -0.7076 -1.5457  1.3090
   83CHL     CL  591   0.447   0.421   3.224  0.6545  0.1258  0.1200
   83CHL      C  592   0.355   0.429   3.068  0.0014 -0.1107 -0.8869
   83CHL    CL1  593   0.394   0.578   2.978  0.5217 -0.8057 -0.4154
   83CHL    CL2  594   0.404   0.282   2.961  0.2856 -0.0180 -0.1094
   83CHL      H  595   0.254   0.437   3.108  1.4530  1.5228  2.9749
   84CHL     CL  596   2.564   2.966   3.107  0.0926  0.3280 -0.3105
   84CHL      C  597   2.522   3.129   3.158 -0.1010 -0.5083  0.4568
   84CHL    CL1  598   2.483   3.244   3.019  0.0555  0.2069  0.4753
   84CHL    CL2  599   2.389   3.134   3.288  0.0350 -0.2980  0.1052
   84CHL      H  600   2.616   3.156   3.209  0.2873 -0.7802 -0.1032
   85CHL     CL  601   4.033   1.547   2.300  0.1787 -0.4031  0.5656
   85CHL      C  602   3.959   1.382   2.313 -0.0139  0.2288 -0.0658
   85CHL    CL1  603   3.806   1.376   2.229  0.0604  0.3394  0.5344
   85CHL    CL2  604   4.077   1.257   2.247 -0.0890 -0.3902 -0.2417
   85CHL      H  605   3.961   1.358   2.420  1.7252 -1.4847 -0.4357
   86CHL     CL  606   4.200   1.821   0.768  0.0959  0.1882  0.0553
   86CHL      C  607   4.085   1.686   0.769  0.5620  0.2431 -0.0361
   86CHL    CL1  608   3.941   1.721   0.662 -0.0302  0.1323  0.2384
   86CHL    CL2  609   4.160   1.530   0.710  0.7389  0.2971  0.0395
   86CHL      H  610   4.055   1.670   0.873 -1.0332 -1.1731 -0.6725
   87CHL     CL  611   2.104   1.735   0.184 -0.3023 -0.2287  0.1822
   87CHL      C  612   2.198   1.588   0.249 -0.0220  0.3381  0.0692
   87CHL    CL1  613   2.164   1.585   0.425  0.2434 -0.5207 -0.0676
   87CHL    CL2  614   2.120   1.439   0.183  0.1035  0.2702  0.6536
   87CHL      H  615   2.301   1.600   0.216  0.1446 -1.4167 -0.1473
   88CHL     CL  616   3.885   3.508   0.246 -0.1903 -0.4413 -0.3614
   88CHL      C  617   3.711   3.499   0.228  0.1093  0.0391 -0.4538
   88CHL    CL1  618   3.629   3.499   0.389 -0.4619  0.1007 -0.0568
   88CHL    CL2  619   3.649   3.635   0.127 -0.1423  0.3325 -0.4713
   88CHL      H  620   3.687   3.407   0.174 -0.3668  0.3363 -0.7524
   89CHL     CL  621   2.724   3.234   3.495 -0.2657  0.3555  0.1015
   89CHL      C  622   2.671   3.400   3.461  0.2399 -0.1997  0.4228
   89CHL    CL1  623   2.704   3.453   3.285  0.4185 -0.2506 -0.0156
   89CHL    CL2  624   2.489   3.412   3.491  0.1233 -0.0439  0.0368
   89CHL      H  625   2.708   3.471   3.536 -1.6589  0.5162  0.7468
   90CHL     CL  626   3.222   3.537   2.014 -0.1697 -0.3427  0.0031
   90CHL      C  627   3.393   3.587   2.010 -1.1405  0.7333  0.1853
   90CHL    CL1  628   3.455   3.554   1.848  0.3414  0.0022 -0.0960
   90CHL    CL2  629   3.414   3.764   2.025 -0.3564 -0.5858 -0.0847
   90CHL      H  630   3.451   3.536   2.088  1.5059  1.5086 -1.1727
   91CHL     CL  631   3.670   0.654   4.218  0.0752 -0.6235  0.1828
   91CHL      C  632   3.842   0.575   4.221 -1.1113  0.5729  0.0665
   91CHL    CL1  633   3.855   0.433   4.109  0.0285 -0.2314  0.0323
   91CHL    CL2  634   3.978   0.688   4.183  0.0471 -0.1477  0.0393
   91CHL      H  635   3.860   0.535   4.321  2.7141  1.5403 -0.0952
   92CHL     CL  636   3.910   2.781   0.863 -0.3685 -0.0631  0.2186
   92CHL      C  637   4.088   2.798   0.876 -0.3571 -0.1368  0.2304
   92CHL    CL1  638   4.154   2.745   0.723  0.1906  0.1026  0.0933
   92CHL    CL2  639   4.119   2.974   0.902 -0.3084 -0.2728  0.2274
   92CHL      H  640   4.136   2.745   0.959  1.6618 -0.1406 -0.8896
   93CHL     CL  641   0.453   3.047   3.420 -0.2849 -0.0510  0.1189
   93CHL      C  642   0.540   2.979   3.271  1.0264 -0.5871  0.0193
   93CHL    CL1  643   0.567   3.123   3.162  0.1283  0.0299  0.3570
   93CHL    CL2  644   0.693   2.906   3.307  0.2443 -0.1475  0.1860
   93CHL      H  645   0.478   2.907   3.217 -1.1973  0.4155  1.0721
   94CHL     CL  646   1.676   3.837   2.148  0.3686  0.3348  0.5040
   94CHL      C  647   1.632   3.975   2.041  0.5064  0.4024  0.0775
   94CHL    CL1  648   1.617   4.116   2.141 -0.2283  0.4040  0.3285
   94CHL    CL2  649   1.742   4.005   1.912 -0.1750  0.2498  0.6296
   94CHL      H  650   1.540   3.949   1.987  0.7265 -0.8073  0.2541
   95CHL     CL  651   0.123   2.590   3.763  0.1110 -0.2223 -0.2071
   95CHL      C  652  -0.027   2.527   3.838  0.2182 -0.1174 -0.3344
   95CHL    CL1  653  -0.153   2.526   3.707 -0.4250  0.0538 -0.1289
   95CHL    CL2  654  -0.003   2.357   3.911 -0.2969  0.3639  0.0409
   95CHL      H  655  -0.054   2.594   3.920  2.8525 -0.6936  1.1080
   96CHL     CL  656   2.089   0.537   0.383  0.1227  0.1094 -0.2747
   96CHL      C  657   2.031   0.600   0.216  0.3980  0.0643 -0.2239
   96CHL    CL1  658   2.009   0.469   0.097 -0.0650  0.2452  0.5502
   96CHL    CL2  659   1.883   0.701   0.249 -0.4230  0.1805 -0.3477
   96CHL      H  660   2.114   0.668   0.197  0.9241 -0.9397 -1.6653
   97CHL     CL  661   1.257   1.029   0.190 -0.4268 -0.3366  0.0238
   97CHL      C  662   1.305   0.938   0.038 -0.4398 -0.5692  0.1415
   97CHL    CL1  663   1.421   0.803   0.077  0.3396 -0.0815 -0.3874
   97CHL    CL2  664   1.161   0.880  -0.061  0.2315  0.1580  0.0338
   97CHL      H  665   1.356   1.013  -0.023  3.1535 -3.2181 -0.4884
   98CHL     CL  666   2.096   0.128   2.098  0.7221  0.0727  0.0096
   98CHL      C  667   1.963   0.239   2.134 -0.1724  0.2663 -0.1268
   98CHL    CL1  668   1.804   0.194   2.084  0.3549 -0.4272 -0.0064
   98CHL    CL2  669   1.945   0.287   2.307 -0.2959  0.0554 -0.0025
   98CHL      H  670   1.992   0.332   2.085  0.2337  0.5243  0.5738
   99CHL     CL  671   1.838   1.003   1.289  0.2478 -0.0091  0.0375
   99CHL      C  672   1.968   0.897   1.213 -0.3909 -0.0792 -0.0860
   99CHL    CL1  673   2.085   0.825   1.333  0.2383 -0.1735 -0.0479
   99CHL    CL2  674   1.887   0.756   1.123 -0.1925  0.2588 -0.3556
   99CHL      H  675   2.017   0.946   1.128 -1.5026 -1.1982 -1.4264
  100CHL     CL  676   1.671   0.515   0.811 -0.4996 -0.0856  0.1116
  100CHL      C  677   1.679   0.372   0.711 -0.3329  0.0021 -0.7037
  100CHL    CL1  678   1.746   0.230   0.801 -0.2769  0.2686 -0.3848
  100CHL    CL2  679   1.515   0.337   0.656 -0.6025 -0.1459 -0.0099
  100CHL      H  680   1.738   0.381   0.620 -2.2199  1.4759 -1.8548
  101CHL     CL  681   3.417   2.248   2.707  0.3793 -0.5886  0.0162
  101CHL      C  682   3.421   2.099   2.816 -0.4649 -0.0796 -0.6213
  101CHL    CL1  683   3.307   2.128   2.964 -0.4594 -0.2783 -0.0324
  101CHL    CL2  684   3.398   1.940   2.730  0.1364  0.1745 -0.2287
  101CHL      H  685   3.526   2.096   2.848 -0.4859 -0.0034 -0.5472
  102CHL     CL  686   1.412   1.348   2.024 -0.0589  0.1077  0.2522
  102CHL      C  687   1.308   1.201   2.041  0.0943 -0.4145 -0.5998
  102CHL    CL1  688   1.420   1.082   2.127 -0.1068  0.1015 -0.3192
  102CHL    CL2  689   1.153   1.233   2.146  0.1122  0.2583 -0.4778
  102CHL      H  690   1.277   1.145   1.952 -1.4305 -1.9374  0.8168
  103CHL     CL  691   0.729   1.630   4.179 -0.2454  0.2235  0.1375
  103CHL      C  692   0.756   1.572   4.016 -0.2532 -0.4100  0.2826
  103CHL    CL1  693   0.889   1.673   3.956  0.0428  0.0065  0.2902
  103CHL    CL2  694   0.809   1.403   4.017 -0.4933 -0.1889  0.0350
  103CHL      H  695   0.668   1.580   3.951 -0.4868 -1.5769  0.4283
  104CHL     CL  696   2.139   1.232   3.492  0.1554  0.1396  0.2758
  104CHL      C  697   2.248   1.102   3.449  0.3248 -0.3497  0.3098
  104CHL    CL1  698   2.328   1.027   3.595 -0.2209 -0.2110 -0.0207
  104CHL    CL2  699   2.155   0.990   3.340 -0.0762 -0.4766  0.2539
  104CHL      H  700   2.311   1.161   3.381 -1.6082  3.2270  1.3645
  105CHL     CL  701   0.929   3.240   2.042 -0.0906  0.0845  0.2087
  105CHL      C  702   0.782   3.295   1.969  0.2446  0.2256  0.0686
  105CHL    CL1  703   0.778   3.224   1.794  0.0172 -0.2209 -0.0985
  105CHL    CL2  704   0.634   3.242   2.069 -0.0410  0.3143 -0.2278
  105CHL      H  705   0.777   3.404   1.962 -0.5106  0.2493  0.7898
  106CHL     CL  706   3.000   1.198   4.230 -0.0529  0.1417  0.0743
  106CHL      C  707   2.986   1.355   4.314 -0.0624 -0.6378 -0.2650
  106CHL    CL1  708   2.813   1.419   4.305 -0.2465  0.0809  0.0971
  106CHL    CL2  709   3.029   1.343   4.490 -0.0653  0.0223  0.3626
  106CHL      H  710   3.048   1.432   4.268 -0.1410  0.2943  1.1271
  107CHL     CL  711   0.291   2.470   4.260 -0.2160 -0.2698 -0.0873
  107CHL      C  712   0.332   2.537   4.423 -0.5930  0.4481 -0.5819
  107CHL    CL1  713   0.517   2.541   4.455 -0.4013  0.0766 -0.4522
  107CHL    CL2  714   0.265   2.690   4.447  0.1041 -0.1482 -0.0124
  107CHL      H  715   0.290   2.470   4.499  1.0312  1.0984  0.9690
  108CHL     CL  716   0.078   1.161   0.501 -0.0532 -0.0904  0.0602
  108CHL      C  717   0.012   1.247   0.363  0.2555  0.0497  0.3094
  108CHL    CL1  718   0.139   1.303   0.253 -0.0716 -0.1272  0.3815
  108CHL    CL2  719  -0.112   1.158   0.267  0.2023 -0.0979 -0.0336
  108CHL      H  720  -0.037   1.335   0.406 -1.6944 -1.5603  1.5492
  109CHL     CL  721   2.293   1.208   2.199 -0.0452  0.0551  0.0109
  109CHL      C  722   2.145   1.201   2.082 -0.3396  0.2681  0.1092
  109CHL    CL1  723   2.196   1.272   1.922  0.0375  0.3251  0.2196
  109CHL    CL2  724   2.090   1.031   2.054  0.0348 -0.5254 -0.0670
  109CHL      H  725   2.072   1.270   2.126 -0.5145 -0.9563  1.8680
  110CHL     CL  726   0.411   1.184   0.902 -0.1350 -0.0271 -0.1671
  110CHL      C  727   0.493   1.338   0.919 -0.6606 -0.5927  0.3062
  110CHL    CL1  728   0.386   1.450   1.024  0.1754 -0.2883 -0.0058
  110CHL    CL2  729   0.658   1.312   0.993 -0.2976  0.0311 -0.0639
  110CHL      H  730   0.503   1.393   0.825 -3.6078  1.7827  1.2200
  111CHL     CL  731   3.238   2.696   2.269 -0.5464  0.0619 -0.4056
  111CHL      C  732   3.155   2.672   2.428 -0.5815  0.4620  0.0668
  111CHL    CL1  733   3.289   2.673   2.554 -0.4295  0.4919  0.2268
  111CHL    CL2  734   3.028   2.791   2.449  0.3245 -0.2046 -0.0189
  111CHL      H  735   3.105   2.575   2.424 -1.5406  0.9465  0.0064
  112CHL     CL  736   2.178   1.000   0.519  0.0381 -0.3319  0.2819
  112CHL      C  737   2.349   1.057   0.534 -0.4859 -0.6183 -0.3668
  112CHL    CL1  738   2.427   0.974   0.395 -0.7507 -0.8731  0.2664
  112CHL    CL2  739   2.376   1.237   0.529  0.4584 -0.0507  0.0050
  112CHL      H  740   2.398   1.024   0.626 -0.6904 -0.8652 -0.3461
  113CHL     CL  741   3.157   0.313   1.599  0.2067 -0.0481  0.0126
  113CHL      C  742   3.180   0.147   1.657 -0.1826 -0.2315  0.7363
  113CHL    CL1  743   3.050   0.108   1.782  0.2101 -0.2377 -0.1030
  113CHL    CL2  744   3.170   0.036   1.515 -0.1870  0.6781  0.1298
  113CHL      H  745   3.279   0.154   1.702  0.5717  0.3617 -0.9501
  114CHL     CL  746   3.649   3.279   3.613  0.1163  0.3325  0.0295
  114CHL      C  747   3.632   3.112   3.559 -0.4240  0.4754  0.0828
  114CHL    CL1  748   3.702   3.016   3.685  0.5057 -0.2930 -0.2806
  114CHL    CL2  749   3.465   3.068   3.526  0.1929  0.4601 -0.0495
  114CHL      H  750   3.690   3.094   3.468  2.6170 -0.4541  2.0706
  115CHL     CL  751   3.312   0.728   1.261  0.0871  0.2133 -0.0763
  115CHL      C  752   3.481   0.749   1.311  0.0017 -0.5589  0.9906
  115CHL    CL1  753   3.557   0.597   1.281  0.3158 -0.1755  0.0027
  115CHL    CL2  754   3.552   0.872   1.207  0.2259 -0.0475  0.0604
  115CHL      H  755   3.486   0.785   1.414  1.1212  0.7340  0.5170
  116CHL     CL  756   2.815   0.720   1.723 -0.0912 -0.2449  0.1465
  116CHL      C  757   2.908   0.818   1.598  0.2518 -0.0721  0.5501
  116CHL    CL1  758   3.025   0.897   1.695  0.3417 -0.3072  0.3852
  116CHL    CL2  759   2.983   0.703   1.485  0.0450  0.2359  0.1585
  116CHL      H  760   2.847   0.882   1.533  1.4673 -0.9171 -1.5310
  117CHL     CL  761   0.288   1.814   1.337 -0.5352  0.1397  0.1505
  117CHL      C  762   0.451   1.879   1.302 -0.0635 -0.4385 -0.0945
  117CHL    CL1  763   0.429   2.051   1.243  0.0500 -0.2107  0.1340
  117CHL    CL2  764   0.559   1.876   1.454 -0.0854 -0.3876  0.1373
  117CHL      H  765   0.496   1.818   1.223 -0.6829  0.0336 -0.8337
  118CHL     CL  766   3.910   2.109   4.366  0.1021  0.2370  0.2202
  118CHL      C  767   3.992   1.951   4.318 -0.2882 -0.2732 -0.6330
  118CHL    CL1  768   3.966   1.848   4.450  0.1510 -0.0987 -0.3060
  118CHL    CL2  769   3.913   1.880   4.166  0.3618 -0.1334  0.4541
  118CHL      H  770   4.101   1.960   4.308  0.0496 -0.2628  2.2754
  119CHL     CL  771   1.232   2.048   0.611  0.1806 -0.1293 -0.3013
  119CHL      C  772   1.104   2.171   0.667 -0.1098 -0.4103 -0.1907
  119CHL    CL1  773   0.941   2.116   0.618 -0.2523  0.3247  0.3885
  119CHL    CL2  774   1.109   2.178   0.846 -0.0216  0.0385 -0.0895
  119CHL      H  775   1.120   2.271   0.625  0.5398 -0.2961  0.3099
  120CHL     CL  776   1.544   2.424   0.748  0.0485  0.3647  0.0117
  120CHL      C  777   1.672   2.334   0.663 -1.2011  0.6577  0.7208
  120CHL    CL1  778   1.780   2.446   0.572 -0.2923  0.3069  0.5833
  120CHL    CL2  779   1.775   2.246   0.785  0.1650  0.0977  0.0568
  120CHL      H  780   1.623   2.258   0.602  2.2116 -1.4407  0.3454
  121CHL     CL  781   2.098   3.935   1.699 -0.3917 -0.3376 -0.6658
  121CHL      C  782   1.948   3.964   1.604  0.2289 -0.4433  0.1138
  121CHL    CL1  783   1.984   4.012   1.433  0.1128  0.1555  0.0519
  121CHL    CL2  784   1.841   3.818   1.616  0.2374  0.2050  0.0268
  121CHL      H  785   1.894   4.048   1.649  0.9584  0.6043 -0.8934
  122CHL     CL  786   3.962   2.877   1.542  0.5740 -0.1478 -0.1902
  122CHL      C  787   3.912   2.722   1.455  0.2273 -0.0845 -0.5237
  122CHL    CL1  788   3.738   2.697   1.471 -0.4785  0.0444 -0.3953
  122CHL    CL2  789   3.953   2.734   1.283 -0.4634 -0.2080  0.0966
  122CHL      H  790   3.965   2.635   1.493  0.9679  0.5334 -0.1183
  123CHL     CL  791   0.712   0.972   0.755 -0.1409  0.2272 -0.4211
  123CHL      C  792   0.741   1.072   0.608  0.0795  0.1805  0.3068
  123CHL    CL1  793   0.696   1.246   0.642 -0.0528  0.0599 -0.3623
  123CHL    CL2  794   0.915   1.063   0.560  0.3935  0.4061  0.2550
  123CHL      H  795   0.680   1.037   0.524 -1.7642 -0.4241  1.8210
  124CHL     CL  796   3.589   0.070   3.137  0.6965  0.1617  0.1359
  124CHL      C  797   3.434   0.099   3.049  0.3725  0.1340  0.0013
  124CHL    CL1  798   3.396   0.278   2.999  0.0782 -0.2624 -0.2063
  124CHL    CL2  799   3.417  -0.020   2.915  0.1417 -0.3754  0.2160
  124CHL      H  800   3.364   0.080   3.131  0.6187 -0.0814  0.1637
  125CHL     CL  801   2.427   0.794   2.786  0.1145  0.4387 -0.1388
  125CHL      C  802   2.398   0.685   2.913 -0.1973 -0.3949 -0.0972
  125CHL    CL1  803   2.249   0.747   2.981  0.1234 -0.1571 -0.0672
  125CHL    CL2  804   2.387   0.523   2.834 -0.0532 -0.4455  0.0383
  125CHL      H  805   2.483   0.687   2.982 -0.2954  0.0085  0.0155
  126CHL     CL  806   2.867   0.124   2.523  0.1524  0.0871  0.3296
  126CHL      C  807   2.917   0.262   2.416 -0.4290 -0.3819 -0.1381
  126CHL    CL1  808   3.096   0.290   2.415 -0.6248 -0.3491 -0.0386
  126CHL    CL2  809   2.864   0.231   2.242  0.0295  0.1164  0.2257
  126CHL      H  810   2.865   0.350   2.456  0.7073  0.0127  0.5032
  127CHL     CL  811   1.884   1.638   3.460  0.2228  0.2245  0.2886
  127CHL      C  812   1.800   1.519   3.372  0.2295  0.3457  1.1550
  127CHL    CL1  813   1.925   1.439   3.262 -0.4370 -0.0380 -0.4176
  127CHL    CL2  814   1.743   1.410   3.491  0.1626  0.2432  0.3021
  127CHL      H  815   1.717   1.559   3.313  1.0610 -0.6027 -0.7777
  128CHL     CL  816   2.870   1.888   2.791 -0.0434 -0.4326  0.0692
  128CHL      C  817   3.034   1.935   2.726  0.1035  0.3861  1.0506
  128CHL    CL1  818   3.065   1.850   2.569  0.3716 -0.2630 -0.3118
  128CHL    CL2  819   3.040   2.105   2.687 -0.1876  0.3286  0.0127
  128CHL      H  820   3.111   1.905   2.798  1.3186 -0.7545 -0.6348
  129CHL     CL  821   2.385   0.384   4.154 -0.3623 -0.0877 -0.3565
  129CHL      C  822   2.291   0.394   4.297  0.5568 -0.2575 -0.1516
  129CHL    CL1  823   2.261   0.218   4.342  0.1265  0.0793 -0.0440
  129CHL    CL2  824   2.376   0.492   4.434 -0.2347  0.4057  0.1828
  129CHL      H  825   2.200   0.445   4.265  1.8999  1.4175 -1.4831
  130CHL     CL  826   2.922   2.457   2.606 -0.3187 -0.1226  0.2461
  130CHL      C  827   2.781   2.332   2.597  0.3850 -0.7640 -0.1861
  130CHL    CL1  828   2.613   2.410   2.603  0.2346 -0.0237 -0.0069
  130CHL    CL2  829   2.801   2.223   2.458  0.1824  0.3306 -0.0371
  130CHL      H  830   2.791   2.266   2.684 -1.8323 -0.7493  0.1348
  131CHL     CL  831   1.305   0.252   0.357 -0.6323  0.5672  0.3450
  131CHL      C  832   1.357   0.417   0.351  0.1250  0.2351  0.2835
  131CHL    CL1  833   1.518   0.410   0.304  0.0573  0.4592  0.1587
  131CHL    CL2  834   1.257   0.503   0.230  0.1330  0.0500  0.0100
  131CHL      H  835   1.346   0.456   0.453 -0.3375 -3.1512  1.6555
  132CHL     CL  836   2.708   3.219   2.637 -0.1726 -0.3600 -0.3490
  132CHL      C  837   2.712   3.098   2.768  0.3702  0.6046 -0.1629
  132CHL    CL1  838   2.568   2.986   2.752  0.4797 -0.3530  0.0081
  132CHL    CL2  839   2.862   3.003   2.756  0.3077  0.0998 -0.1666
  132CHL      H  840   2.703   3.152   2.862 -1.8544  0.1918 -0.0854
  133CHL     CL  841   1.822   1.216   0.993  0.5025 -0.3177 -0.1296
  133CHL      C  842   1.657   1.282   0.955  0.1267  0.6543 -0.5472
  133CHL    CL1  843   1.595   1.209   0.806  0.1256 -0.1549  0.0391
  133CHL    CL2  844   1.553   1.246   1.096  0.4586 -0.1878 -0.0854
  133CHL      H  845   1.657   1.391   0.944  0.6380  0.8557  1.1365
  134CHL     CL  846   2.695   4.232   0.318  0.1890  0.2327  0.3164
  134CHL      C  847   2.612   4.387   0.369  0.3002 -0.4147 -0.1537
  134CHL    CL1  848   2.469   4.419   0.250  0.0156  0.2974  0.1408
  134CHL    CL2  849   2.547   4.362   0.537  0.2789  0.0722  0.4967
  134CHL      H  850   2.688   4.466   0.368 -0.9290  0.8127  0.3721
  135CHL     CL  851   3.336   2.855   1.110 -0.2267  0.1930 -0.2345
  135CHL      C  852   3.194   2.967   1.128  0.8414 -0.3709 -0.4731
  135CHL    CL1  853   3.234   3.132   1.052 -0.0396 -0.2247 -0.5411
  135CHL    CL2  854   3.064   2.890   1.022 -0.1638 -0.1361 -0.1374
  135CHL      H  855   3.166   2.978   1.234 -0.4251 -2.6444 -0.5021
  136CHL     CL  856   4.342   3.417   3.506 -0.1565  0.0830  0.0972
  136CHL      C  857   4.500   3.517   3.520 -0.2989  0.6206  0.5355
  136CHL    CL1  858   4.633   3.418   3.591 -0.0926  0.1036 -0.3405
  136CHL    CL2  859   4.546   3.568   3.351  0.0090  0.0392  0.0335
  136CHL      H  860   4.487   3.604   3.585  0.0991  0.9218  0.2139
  137CHL     CL  861   2.111   2.191   2.398 -0.2961 -0.0493 -0.1504
  137CHL      C  862   2.238   2.138   2.517 -0.0322  0.3237  0.2850
  137CHL    CL1  863   2.222   1.972   2.571 -0.0506  0.0987  0.0768
  137CHL    CL2  864   2.404   2.158   2.455  0.3357 -0.1653  0.1260
  137CHL      H  865   2.236   2.208   2.601  1.7943  1.3187 -0.4563
  138CHL     CL  866   3.464   3.768   4.152  0.3905 -0.0785 -0.0334
  138CHL      C  867   3.286   3.762   4.129  0.1229 -0.6898 -0.0658
  138CHL    CL1  868   3.204   3.873   4.236 -0.3100  0.2776 -0.0644
  138CHL    CL2  869   3.244   3.800   3.954  0.0854 -0.0385 -0.0073
  138CHL      H  870   3.247   3.662   4.151 -0.8552 -0.7401 -1.8182
  139CHL     CL  871   0.430   0.656   0.621 -0.1711 -0.1058 -0.0585
  139CHL      C  872   0.411   0.526   0.747 -0.3920 -0.5729  0.2261
  139CHL    CL1  873   0.453   0.590   0.909 -0.5098 -0.0234 -0.0592
  139CHL    CL2  874   0.236   0.454   0.731  0.1418 -0.3958  0.1466
  139CHL      H  875   0.484   0.449   0.718 -1.1075 -0.9002 -0.7936
  140CHL     CL  876   3.175   0.280   1.207 -0.1422 -0.2198  0.1856
  140CHL      C  877   3.328   0.197   1.137  0.1575  0.0197  0.1202
  140CHL    CL1  878   3.359   0.249   0.961 -0.2164  0.1476  0.0917
  140CHL    CL2  879   3.471   0.225   1.231 -0.1412  0.3443 -0.1178
  140CHL      H  880   3.306   0.090   1.132 -0.7205  0.1195  1.4149
  141CHL     CL  881   0.987   1.561   1.104 -0.0746  0.3188  0.4423
  141CHL      C  882   0.888   1.644   1.233 -0.5451 -0.2087 -0.4741
  141CHL    CL1  883   0.777   1.776   1.176  0.3739 -0.2356 -0.0004
  141CHL    CL2  884   0.797   1.518   1.321 -0.2978 -0.0268 -0.1859
  141CHL      H  885   0.965   1.690   1.296 -1.9663  2.6944 -0.7043
  142CHL     CL  886   0.795   1.170   1.588 -0.4983 -0.0700  0.1064
  142CHL      C  887   0.796   1.121   1.761  0.2198 -0.4546  0.4679
  142CHL    CL1  888   0.884   1.239   1.851  0.0898 -0.2178  0.1613
  142CHL    CL2  889   0.627   1.121   1.823 -0.1270  0.2221 -0.2336
  142CHL      H  890   0.850   1.028   1.780  0.0739 -1.0501 -1.7704
  143CHL     CL  891   1.805   3.446   3.759  0.1724 -0.3215  0.1986
  143CHL      C  892   1.784   3.338   3.613  0.7589  0.5838  0.4499
  143CHL    CL1  893   1.715   3.174   3.663  0.0042  0.1354 -0.1112
  143CHL    CL2  894   1.687   3.413   3.486 -0.6108  0.1635 -0.1551
  143CHL      H  895   1.883   3.316   3.572  0.5390  0.5804 -0.0895
  144CHL     CL  896   3.023   1.725   0.283  0.3053  0.2894 -0.0874
  144CHL      C  897   2.994   1.826   0.436  0.0937 -1.0827 -0.5691
  144CHL    CL1  898   2.885   1.959   0.405  0.1177  0.0256 -0.0324
  144CHL    CL2  899   2.925   1.730   0.562 -0.0854  0.2106 -0.1379
  144CHL      H  900   3.088   1.863   0.478  0.0007 -0.8080 -0.5962
  145CHL     CL  901   2.183   3.163   0.703 -0.0930 -0.0873 -0.4515
  145CHL      C  902   2.340   3.133   0.794  0.2244  0.4120 -0.1581
  145CHL    CL1  903   2.325   2.992   0.908 -0.2219  0.1320  0.5574
  145CHL    CL2  904   2.480   3.107   0.676 -0.1440  0.0972  0.4013
  145CHL      H  905   2.360   3.218   0.861 -0.1126  0.7711 -0.5089
  146CHL     CL  906   1.671   3.884   3.316  0.1294  0.0944  0.2388
  146CHL      C  907   1.549   3.864   3.444 -0.1476 -0.2634 -0.2128
  146CHL    CL1  908   1.633   3.822   3.602  0.3098  0.1641  0.0688
  146CHL    CL2  909   1.449   4.009   3.460 -0.2499  0.4413 -0.3512
  146CHL      H  910   1.481   3.782   3.417 -1.2536  0.8748 -0.9410
  147CHL     CL  911   4.218   1.427   0.012  0.3813  0.2988 -0.1453
  147CHL      C  912   4.155   1.517  -0.137  0.0439 -0.6871  0.1686
  147CHL    CL1  913   3.975   1.541  -0.124 -0.0572  0.4304  0.3715
  147CHL    CL2  914   4.236   1.676  -0.138  0.4529 -0.3575 -0.1773
  147CHL      H  915   4.182   1.457  -0.224 -1.8210  0.2262 -1.1122
  148CHL     CL  916   1.942   3.086   3.950  0.1504  0.4646 -0.1761
  148CHL      C  917   1.829   3.165   4.073  0.3778 -0.0397  0.2618
  148CHL    CL1  918   1.884   3.339   4.101  0.0508 -0.0229  0.3860
  148CHL    CL2  919   1.663   3.163   4.019  0.0317  0.2169  0.2530
  148CHL      H  920   1.827   3.107   4.166  2.4623 -0.3561  0.1651
  149CHL     CL  921   4.135   2.007   2.311  0.2606 -0.1714  0.1207
  149CHL      C  922   4.308   2.020   2.253 -0.0894 -0.0616 -0.5429
  149CHL    CL1  923   4.310   2.027   2.064 -0.0683 -0.0544 -0.3162
  149CHL    CL2  924   4.372   2.162   2.316 -0.2406 -0.4802 -0.2024
  149CHL      H  925   4.363   1.934   2.295  0.1571  0.6339  0.6141
  150CHL     CL  926   1.856   0.840   0.568 -0.6818 -0.2340  0.3606
  150CHL      C  927   1.683   0.854   0.606 -0.5168  0.2496 -0.0012
  150CHL    CL1  928   1.584   0.714   0.551  0.1819  0.0193  0.1720
  150CHL    CL2  929   1.670   0.873   0.786 -0.1339 -0.2088 -0.1919
  150CHL      H  930   1.650   0.954   0.575 -1.0335  0.9998  2.7136
  151CHL     CL  931   3.756   3.255   4.334 -0.2629 -0.3795  0.2438
  151CHL      C  932   3.922   3.283   4.256  0.4537 -0.1826  0.7926
  151CHL    CL1  933   3.889   3.287   4.072  0.1165  0.0889 -0.1021
  151CHL    CL2  934   3.987   3.440   4.309  0.1879 -0.2915 -0.0236
  151CHL      H  935   4.002   3.209   4.265  1.4680  0.6995 -0.4928
  152CHL     CL  936   0.453   2.060   1.783  0.2235 -0.1626  0.4948
  152CHL      C  937   0.374   2.021   1.936 -0.2572 -0.5958  0.1363
  152CHL    CL1  938   0.308   2.179   2.000  0.1173 -0.1081  0.0092
  152CHL    CL2  939   0.231   1.913   1.908 -0.0413 -0.0348  0.1634
  152CHL      H  940   0.436   1.968   2.008  1.5755 -0.3884 -1.2344
  153CHL     CL  941   2.469   1.524   3.283  0.5724 -0.3440 -0.1527
  153CHL      C  942   2.550   1.553   3.442  0.1217 -0.4538 -0.1491
  153CHL    CL1  943   2.497   1.410   3.546 -0.1660  0.3489  0.4216
  153CHL    CL2  944   2.735   1.577   3.434  0.6208  0.0347 -0.3559
  153CHL      H  945   2.504   1.645   3.479 -1.7932  0.1299 -3.5785
  154CHL     CL  946   1.095   4.366   3.549  0.1552 -0.1237 -0.1459
  154CHL      C  947   1.266   4.297   3.544  1.3000 -0.4567  0.1235
  154CHL    CL1  948   1.335   4.338   3.388  0.0139  0.2725 -0.4323
  154CHL    CL2  949   1.375   4.366   3.672  0.0811  0.2098  0.2765
  154CHL      H  950   1.258   4.189   3.562  0.3969 -0.3876  0.2059
  155CHL     CL  951   0.528   1.913   4.166  0.0244 -0.2636 -0.1606
  155CHL      C  952   0.564   2.072   4.085 -0.1955 -0.3450 -0.0131
  155CHL    CL1  953   0.739   2.089   4.059  0.0400 -0.1047 -0.3552
  155CHL    CL2  954   0.474   2.081   3.921  0.2305  0.0626 -0.2512
  155CHL      H  955   0.536   2.155   4.151  1.9578 -2.2533  3.5532
  156CHL     CL  956   0.198   0.023   2.720 -0.0892 -0.0205 -0.0236
  156CHL      C  957   0.181  -0.085   2.577  0.3401 -0.1825 -0.6749
  156CHL    CL1  958   0.029  -0.187   2.576  0.4087 -0.2267 -0.0964
  156CHL    CL2  959   0.219   0.012   2.428  0.2784  0.1630  0.0673
  156CHL      H  960   0.268  -0.152   2.570  0.5712  0.0474 -0.0908
  157CHL     CL  961   1.175   1.984   3.129  0.1972  0.1723 -0.2368
  157CHL      C  962   1.213   2.159   3.126 -0.8640 -0.8130  0.0136
  157CHL    CL1  963   1.347   2.183   3.008 -0.0762 -0.1079  0.3896
  157CHL    CL2  964   1.066   2.258   3.076 -0.2445  0.0442 -0.1493
  157CHL      H  965   1.251   2.191   3.223  0.5890  0.2755 -0.8808
  158CHL     CL  966   0.346   1.435   2.626  0.1759 -0.3043 -0.1537
  158CHL      C  967   0.306   1.464   2.797  0.0143 -0.3316  0.0811
  158CHL    CL1  968   0.313   1.324   2.902  0.7412 -0.1383  0.2056
  158CHL    CL2  969   0.419   1.606   2.847  0.0374  0.4803  0.3388
  158CHL      H  970   0.202   1.497   2.806 -0.0485 -1.0702  3.3954
  159CHL     CL  971   2.380   4.372   2.660 -0.2060  0.1315  0.3538
  159CHL      C  972   2.291   4.474   2.787  0.5264  0.4579 -0.1382
  159CHL    CL1  973   2.111   4.482   2.760 -0.1616 -0.0049  0.4225
  159CHL    CL2  974   2.323   4.420   2.950 -0.1605 -0.2324 -0.1023
  159CHL      H  975   2.329   4.576   2.788  1.3875  0.1401  0.3341
  160CHL     CL  976   1.455   0.325   4.167 -0.1731 -0.1513 -0.0165
  160CHL      C  977   1.414   0.497   4.229 -0.1523  0.8649  0.4383
  160CHL    CL1  978   1.569   0.598   4.280 -0.0245  0.1942 -0.2095
  160CHL    CL2  979   1.323   0.576   4.093  0.1255 -0.0459  0.3112
  160CHL      H  980   1.358   0.479   4.322 -0.4430  2.3891  0.5807
  161CHL     CL  981   0.152   0.195   0.490  0.0729  0.1230  0.2378
  161CHL      C  982   0.017   0.109   0.400 -0.3154  0.3002 -0.0581
  161CHL    CL1  983   0.096   0.040   0.247 -0.1535  0.2799 -0.1187
  161CHL    CL2  984  -0.052  -0.021   0.501  0.0299  0.5800  0.0986
  161CHL      H  985  -0.066   0.178   0.380  1.0709  1.8974 -0.5294
  162CHL     CL  986   1.662   0.265   0.034  0.3904 -0.1925 -0.1787
  162CHL      C  987   1.635   0.082   0.050  1.2332  0.0701  0.3199
  162CHL    CL1  988   1.597   0.036   0.225 -0.1431  0.2458 -0.1974
  162CHL    CL2  989   1.491   0.038  -0.058  0.0269  0.2151 -0.5272
  162CHL      H  990   1.724   0.030   0.013  0.2359 -0.8403 -0.9119
  163CHL     CL  991   0.304   1.195   1.273  0.1161 -0.3809 -0.6100
  163CHL      C  992   0.328   1.348   1.359  0.0910  0.3107 -0.9914
  163CHL    CL1  993   0.226   1.334   1.507  0.0429  0.0228 -0.3384
  163CHL    CL2  994   0.510   1.374   1.393 -0.0444 -0.2590 -0.2460
  163CHL      H  995   0.294   1.436   1.302  1.8555  1.3864 -0.4734
  164CHL     CL  996   0.968   0.631   1.443 -0.0434  0.1274 -0.1616
  164CHL      C  997   0.821   0.554   1.366  0.3366  0.3272  0.0220
  164CHL    CL1  998   0.807   0.635   1.212  0.0125  0.1272 -0.1741
  164CHL    CL2  999   0.841   0.371   1.331  0.2837 -0.0364  0.4788
  164CHL      H 1000   0.733   0.574   1.429 -0.2919  0.2929 -0.8221
  165CHL     CL 1001   3.607   0.659   0.788 -0.2667 -0.3703  0.2318
  165CHL      C 1002   3.697   0.797   0.845  0.2482 -0.4647 -0.3135
  165CHL    CL1 1003   3.838   0.826   0.742  0.3121  0.3037  0.0214
  165CHL    CL2 1004   3.591   0.946   0.859  0.2441  0.3218 -0.4239
  165CHL      H 1005   3.737   0.782   0.946 -1.7642 -1.5781  0.3882
  166CHL     CL 1006   0.447   2.136   0.042  0.1065  0.3737  0.0580
  166CHL      C 1007   0.428   1.976   0.123  0.2377 -0.0821  0.0193
  166CHL    CL1 1008   0.587   1.915   0.160 -0.1311 -0.1971 -0.1186
  166CHL    CL2 1009   0.346   2.020   0.278 -0.0605 -0.2976  0.0163
  166CHL      H 1010   0.378   1.895   0.069 -1.5180  1.7683 -1.2715
  167CHL     CL 1011   2.318   3.310   1.378 -0.3738 -0.0795  0.0715
  167CHL      C 1012   2.304   3.131   1.406 -0.0970  0.5540  0.0518
  167CHL    CL1 1013   2.432   3.042   1.323  0.0144  0.3342  0.2200
  167CHL    CL2 1014   2.306   3.078   1.582  0.0421  0.1416 -0.3716
  167CHL      H 1015   2.206   3.106   1.364  1.2571 -2.4972 -1.7011
  168CHL     CL 1016   1.709   0.707   2.758  0.0408 -0.0274 -0.0626
  168CHL      C 1017   1.636   0.864   2.716  0.6222 -0.8625  0.0141
  168CHL    CL1 1018   1.730   1.004   2.744 -0.1364  0.3009  0.0865
  168CHL    CL2 1019   1.590   0.871   2.546  0.1136 -0.3844 -0.3412
  168CHL      H 1020   1.546   0.873   2.778  0.7380  1.0197 -0.0455
  169CHL     CL 1021   1.495   2.727   1.565  0.2493 -0.7116 -0.4727
  169CHL      C 1022   1.489   2.572   1.484 -0.1624  0.5627  0.9258
  169CHL    CL1 1023   1.351   2.571   1.375 -0.1714  0.2720  0.0752
  169CHL    CL2 1024   1.640   2.549   1.388  0.0225  0.0058  0.0201
  169CHL      H 1025   1.480   2.493   1.560  3.9222 -0.2117  0.8291
  170CHL     CL 1026   3.287   2.500   4.164  0.0582 -0.0287 -0.1727
  170CHL      C 1027   3.190   2.401   4.044  0.0077  0.1894 -0.5807
  170CHL    CL1 1028   3.297   2.300   3.942 -0.0224 -0.2463 -0.0582
  170CHL    CL2 1029   3.066   2.285   4.114  0.4624  0.1159 -0.0657
  170CHL      H 1030   3.131   2.466   3.979 -1.1957 -2.5851 -2.4864
  171CHL     CL 1031   1.605   0.804   3.115  0.0256  0.2968 -0.0930
  171CHL      C 1032   1.630   0.711   3.260  0.2794  0.1561  0.5774
  171CHL    CL1 1033   1.464   0.659   3.316 -0.1249  0.2088 -0.0952
  171CHL    CL2 1034   1.737   0.562   3.220  0.1219 -0.1994 -0.2115
  171CHL      H 1035   1.679   0.768   3.339  0.6399 -0.0278  0.4908
  172CHL     CL 1036   0.795   2.635   4.031 -0.0379  0.1107  0.0762
  172CHL      C 1037   0.706   2.524   4.143 -0.3859  0.0564 -0.0964
  172CHL    CL1 1038   0.569   2.446   4.061  0.1102  0.1719 -0.3423
  172CHL    CL2 1039   0.817   2.394   4.202  0.2873 -0.1068  0.1798
  172CHL      H 1040   0.668   2.587   4.224 -2.9349 -1.5760  0.0919
  173CHL     CL 1041   2.688   3.497   3.803  0.2203 -0.4723  0.1676
  173CHL      C 1042   2.711   3.621   3.926  0.0555 -0.5189 -0.2450
  173CHL    CL1 1043   2.545   3.675   3.976 -0.0315 -0.2355 -0.3462
  173CHL    CL2 1044   2.798   3.537   4.068 -0.1865 -0.1383 -0.1608
  173CHL      H 1045   2.777   3.700   3.889 -0.5683 -0.3584 -1.0288
  174CHL     CL 1046   1.552   2.049   0.396 -0.2832  0.1836  0.1318
  174CHL      C 1047   1.519   1.974   0.232  0.1764  0.6585 -0.0821
  174CHL    CL1 1048   1.361   1.885   0.232 -0.1079 -0.4167 -0.0358
  174CHL    CL2 1049   1.506   2.096   0.104 -0.0567  0.2652  0.0481
  174CHL      H 1050   1.596   1.897   0.219  0.7005  1.1700 -0.0050
  175CHL     CL 1051   2.911   3.633   0.634 -0.2246 -0.2971 -0.1566
  175CHL      C 1052   3.045   3.641   0.513  0.1695  0.2413  0.5580
  175CHL    CL1 1053   3.195   3.574   0.565  0.3551  0.0612  0.3716
  175CHL    CL2 1054   2.996   3.548   0.351 -0.0665  0.1333  0.0065
  175CHL      H 1055   3.069   3.747   0.499  0.5669  0.0356 -0.3961
  176CHL     CL 1056   3.097   4.313   0.541  0.6427 -0.0743 -0.1232
  176CHL      C 1057   3.219   4.357   0.670  0.1338 -0.7341 -0.5919
  176CHL    CL1 1058   3.206   4.249   0.817  0.3039  0.1348 -0.0453
  176CHL    CL2 1059   3.389   4.351   0.595 -0.2106  0.1208 -0.0513
  176CHL      H 1060   3.194   4.460   0.699  0.6779 -1.0014  0.8706
  177CHL     CL 1061   1.321   2.644   0.518 -0.2235  0.0578 -0.4372
  177CHL      C 1062   1.400   2.613   0.366 -0.1205  0.6699  0.1267
  177CHL    CL1 1063   1.483   2.775   0.312  0.0236  0.2192 -0.0475
  177CHL    CL2 1064   1.521   2.486   0.394  0.2001  0.0585 -0.6012
  177CHL      H 1065   1.328   2.579   0.291  2.2675 -0.4980 -1.7883
  178CHL     CL 1066   1.329   1.519   2.779 -0.1941  0.2119 -0.1752
  178CHL      C 1067   1.414   1.682   2.798  0.2707  0.3238 -0.0446
  178CHL    CL1 1068   1.353   1.799   2.674  0.4522 -0.1698 -0.5902
  178CHL    CL2 1069   1.361   1.747   2.958  0.0672 -0.0577 -0.4333
  178CHL      H 1070   1.521   1.661   2.788 -0.0784 -0.9599 -1.5613
  179CHL     CL 1071   1.979   3.546   3.147 -0.4191 -0.0234  0.0774
  179CHL      C 1072   2.083   3.641   3.266 -0.2384 -0.4598 -0.2994
  179CHL    CL1 1073   1.989   3.774   3.348  0.6444 -0.4487 -0.1275
  179CHL    CL2 1074   2.155   3.533   3.389 -0.1630 -0.0639 -0.0297
  179CHL      H 1075   2.155   3.690   3.199  0.7413 -1.0678  0.2796
  180CHL     CL 1076   4.047   2.153   1.605 -0.3844 -0.0189 -0.0740
  180CHL      C 1077   3.891   2.243   1.607 -0.0767  0.5826 -0.2138
  180CHL    CL1 1078   3.885   2.340   1.761  0.0793 -0.1586  0.0094
  180CHL    CL2 1079   3.886   2.347   1.459  0.0047 -0.3725 -0.0646
  180CHL      H 1080   3.800   2.182   1.610  1.0720 -1.1724  1.4326
  181CHL     CL 1081   2.773   3.898   1.021 -0.0004  0.0595 -0.3667
  181CHL      C 1082   2.814   4.056   1.104 -0.0463 -0.1336  0.2377
  181CHL    CL1 1083   2.936   4.032   1.244  0.2768  0.0925  0.5942
  181CHL    CL2 1084   2.845   4.187   0.979 -0.0766 -0.1365  0.3625
  181CHL      H 1085   2.722   4.093   1.152 -1.6263 -1.5067 -1.5899
  182CHL     CL 1086   3.608   0.171   2.590  0.2145 -0.2490  0.0498
  182CHL      C 1087   3.731   0.207   2.707 -0.7360 -0.0793 -0.2413
  182CHL    CL1 1088   3.755   0.068   2.815 -0.0275  0.2537 -0.2346
  182CHL    CL2 1089   3.887   0.246   2.601 -0.2134 -0.2931  0.1023
  182CHL      H 1090   3.702   0.293   2.769 -3.8232 -2.0409  1.2771
  183CHL     CL 1091   0.216   2.513   2.481  0.0254 -0.0135  0.0153
  183CHL      C 1092   0.272   2.421   2.628 -0.4443 -0.0019  0.1920
  183CHL    CL1 1093   0.141   2.345   2.735 -0.5222 -0.1594 -0.1776
  183CHL    CL2 1094   0.400   2.283   2.598  0.3078 -0.1088 -0.5190
  183CHL      H 1095   0.319   2.497   2.691 -0.5164 -0.6724  1.0639
  184CHL     CL 1096   3.791   3.446   0.716  0.1418  0.0130 -0.4370
  184CHL      C 1097   3.742   3.279   0.771  0.4929 -0.1813  0.3871
  184CHL    CL1 1098   3.615   3.211   0.656  0.2027 -0.1947 -0.2277
  184CHL    CL2 1099   3.880   3.167   0.769  0.0195 -0.0178  0.3587
  184CHL      H 1100   3.709   3.289   0.874 -0.6745  2.6117 -0.1618
  185CHL     CL 1101   0.746   3.289   2.889 -0.2527  0.3921  0.2577
  185CHL      C 1102   0.656   3.194   2.763 -0.1770  0.3225 -0.2170
  185CHL    CL1 1103   0.595   3.305   2.634  0.2259  0.2413 -0.2955
  185CHL    CL2 1104   0.754   3.062   2.705  0.0334 -0.0554  0.0516
  185CHL      H 1105   0.575   3.140   2.811 -0.6395  1.0856 -0.1290
  186CHL     CL 1106   3.320   3.351   3.442 -0.2332 -0.2336 -0.3358
  186CHL      C 1107   3.141   3.374   3.423 -0.9992  0.7050 -0.1367
  186CHL    CL1 1108   3.103   3.324   3.260 -0.3670 -0.0139 -0.0723
  186CHL    CL2 1109   3.042   3.294   3.545 -0.5453 -0.2617  0.2292
  186CHL      H 1110   3.124   3.482   3.428 -0.5756  0.8530 -1.4824
  187CHL     CL 1111   1.101   1.196   2.696 -0.5197 -0.2943 -0.2744
  187CHL      C 1112   1.212   1.186   2.553 -0.1225 -0.2430  0.3452
  187CHL    CL1 1113   1.232   1.344   2.478  0.1666  0.0887 -0.0798
  187CHL    CL2 1114   1.370   1.129   2.612  0.6668 -0.2373  0.0470
  187CHL      H 1115   1.180   1.110   2.481 -3.4675  2.0121 -0.7726
  188CHL     CL 1116   0.039   2.323   0.101 -0.2188 -0.1297 -0.3257
  188CHL      C 1117  -0.087   2.327  -0.029  0.3695 -0.3691  0.6552
  188CHL    CL1 1118  -0.076   2.457  -0.151 -0.2592 -0.2300 -0.3853
  188CHL    CL2 1119  -0.096   2.165  -0.108 -0.0233 -0.2457  0.4971
  188CHL      H 1120  -0.182   2.345   0.023  0.7245 -1.0597  1.5661
  189CHL     CL 1121   2.627   2.561   4.166 -0.4120  0.0056 -0.1120
  189CHL      C 1122   2.697   2.608   4.010  0.8268  0.0560 -0.1875
  189CHL    CL1 1123   2.686   2.785   4.000 -0.1397  0.0988  0.0594
  189CHL    CL2 1124   2.860   2.541   3.996 -0.3868  0.0394  0.0075
  189CHL      H 1125   2.631   2.573   3.930  0.3632  1.0765 -0.2710
  190CHL     CL 1126   2.353   1.639   2.724 -0.0671 -0.0242  0.2997
  190CHL      C 1127   2.254   1.605   2.575  0.4952 -0.5007  0.1352
  190CHL    CL1 1128   2.292   1.442   2.511 -0.0744 -0.2142  0.1193
  190CHL    CL2 1129   2.077   1.636   2.603 -0.4415  0.1117 -0.0040
  190CHL      H 1130   2.282   1.676   2.497 -0.6812 -1.9887 -1.7434
  191CHL     CL 1131   1.329   3.640   3.785  0.0282 -0.0157 -0.0978
  191CHL      C 1132   1.451   3.515   3.804 -0.0711 -0.4344 -0.0768
  191CHL    CL1 1133   1.511   3.508   3.969  0.4829  0.7890 -0.1695
  191CHL    CL2 1134   1.353   3.365   3.762  0.6664 -0.1813 -0.1765
  191CHL      H 1135   1.533   3.529   3.733 -0.0464  1.0493  0.2031
  192CHL     CL 1136   2.474   1.737   0.569 -0.3860 -0.0854  0.0563
  192CHL      C 1137   2.543   1.855   0.444 -0.7416 -0.1531 -0.1709
  192CHL    CL1 1138   2.637   1.759   0.324  0.4192 -0.0444  0.1980
  192CHL    CL2 1139   2.411   1.926   0.356  0.6908 -0.3360  0.2213
  192CHL      H 1140   2.606   1.937   0.482 -1.1432  1.2823 -2.3806
  193CHL     CL 1141   3.841   3.885   2.956  0.1605  0.0379  0.1413
  193CHL      C 1142   3.800   4.045   2.863  0.1395  0.6580 -0.1903
  193CHL    CL1 1143   3.629   4.091   2.876 -0.0427 -0.5311 -0.0227
  193CHL    CL2 1144   3.899   4.181   2.929 -0.1715 -0.3829  0.3160
  193CHL      H 1145   3.823   4.028   2.758  0.5221 -0.5572  0.0671
  194CHL     CL 1146   0.584   4.304   3.646  0.0027  0.2700 -0.0025
  194CHL      C 1147   0.736   4.330   3.569 -0.3355  0.2241  0.7779
  194CHL    CL1 1148   0.726   4.261   3.404  0.3386 -0.1518 -0.2029
  194CHL    CL2 1149   0.771   4.506   3.544 -0.2544 -0.2932  0.1336
  194CHL      H 1150   0.811   4.276   3.628 -0.9547 -1.2714  0.2532
  195CHL     CL 1151   4.329   0.153   1.361  0.0352  0.2009 -0.5346
  195CHL      C 1152   4.412   0.033   1.489 -0.0121  0.9297  0.7284
  195CHL    CL1 1153   4.515  -0.094   1.396  0.3499 -0.2259  0.0387
  195CHL    CL2 1154   4.517   0.117   1.599  0.3250  0.3911 -0.0053
  195CHL      H 1155   4.335  -0.023   1.542 -1.7103  2.3405 -0.1357
  196CHL     CL 1156   0.654   0.837   1.574  0.2601  0.4461 -0.5281
  196CHL      C 1157   0.527   0.871   1.444 -0.4794  0.3121  0.2944
  196CHL    CL1 1158   0.482   0.723   1.349 -0.1927  0.2630 -0.3228
  196CHL    CL2 1159   0.381   0.951   1.524 -0.3988  0.1704  0.0161
  196CHL      H 1160   0.567   0.944   1.373 -1.6035  0.3276 -0.3473
  197CHL     CL 1161   3.907   3.573   1.045  0.1178  0.1466  0.0258
  197CHL      C 1162   3.753   3.618   1.128  0.5955 -0.0392  0.6017
  197CHL    CL1 1163   3.621   3.534   1.038 -0.4546 -0.0328  0.2479
  197CHL    CL2 1164   3.764   3.559   1.298  0.1601 -0.1931  0.0387
  197CHL      H 1165   3.724   3.723   1.123 -0.7379 -0.4347 -2.6907
  198CHL     CL 1166   1.142   2.503   1.699 -0.1351  0.1547 -0.3728
  198CHL      C 1167   1.031   2.536   1.843 -0.3477 -0.5792  0.3462
  198CHL    CL1 1168   0.863   2.508   1.794  0.3100  0.0106 -0.1365
  198CHL    CL2 1169   1.079   2.430   1.979 -0.1993 -0.2042 -0.3637
  198CHL      H 1170   1.043   2.640   1.873 -0.1860 -0.2453 -0.8138
  199CHL     CL 1171   1.966   0.063   0.206  0.1575 -0.0269  0.1012
  199CHL      C 1172   1.983   0.116   0.373  0.5477 -0.5892 -0.0517
  199CHL    CL1 1173   2.157   0.112   0.407  0.1952  0.3875 -0.2189
  199CHL    CL2 1174   1.889   0.270   0.404  0.1278  0.2900  0.3308
  199CHL      H 1175   1.938   0.032   0.428 -1.0389 -0.5560 -1.2269
  200CHL     CL 1176   4.134   2.874   3.746 -0.1186  0.3069 -0.0715
  200CHL      C 1177   3.995   2.858   3.864  0.1130  0.6008  0.3805
  200CHL    CL1 1178   3.884   2.737   3.808 -0.1733  0.1985  0.1610
  200CHL    CL2 1179   4.057   2.820   4.024  0.2842 -0.3166  0.0418
  200CHL      H 1180   3.937   2.951   3.872  1.0125  1.3617 -1.5549
  201CHL     CL 1181   2.549   3.902   1.681 -0.2994  0.2704  0.1221
  201CHL      C 1182   2.674   3.937   1.550 -0.1364  0.8947  0.0639
  201CHL    CL1 1183   2.794   3.808   1.546 -0.0761 -0.3543  0.0483
  201CHL    CL2 1184   2.593   3.955   1.384 -0.0808 -0.2176 -0.0672
  201CHL      H 1185   2.733   4.029   1.566  1.0711  0.7332 -2.7931
  202CHL     CL 1186   0.376   2.469   0.347  0.1902  0.1399 -0.3018
  202CHL      C 1187   0.459   2.615   0.415  0.8075  0.2322  0.0066
  202CHL    CL1 1188   0.361   2.763   0.382  0.1662 -0.2448  0.6108
  202CHL    CL2 1189   0.466   2.589   0.588 -0.1137  0.0042 -0.2996
  202CHL      H 1190   0.563   2.629   0.385  0.9562  1.6840  1.1007
  203CHL     CL 1191   2.771   4.381   3.012  0.1017  0.3481 -0.1308
  203CHL      C 1192   2.859   4.284   2.887  0.4447 -0.5772  0.0430
  203CHL    CL1 1193   2.745   4.247   2.749  0.2281 -0.5501 -0.1328
  203CHL    CL2 1194   3.005   4.384   2.832 -0.1600 -0.0583  0.4914
  203CHL      H 1195   2.895   4.195   2.940 -0.5549  0.4821  2.6396
  204CHL     CL 1196   1.468   3.035   0.039 -0.1365  0.2358 -0.2758
  204CHL      C 1197   1.624   2.987   0.105  0.8825  0.6529 -0.0522
  204CHL    CL1 1198   1.755   3.051   0.004  0.0078  0.1688  0.2494
  204CHL    CL2 1199   1.639   3.057   0.275  0.3568 -0.3325  0.0708
  204CHL      H 1200   1.630   2.878   0.103 -0.5076  0.5511 -0.1539
  205CHL     CL 1201   3.180   2.933   3.245 -0.1298 -0.1951 -0.2009
  205CHL      C 1202   3.016   2.889   3.272  0.6237  0.0415 -0.4909
  205CHL    CL1 1203   2.967   2.938   3.436  0.0213  0.0032  0.4428
  205CHL    CL2 1204   2.907   2.954   3.143 -0.3591 -0.2823 -0.0724
  205CHL      H 1205   3.007   2.780   3.272 -3.1423  0.1692  1.6497
  206CHL     CL 1206   2.669   4.033   0.720  0.2892  0.5769  0.0696
  206CHL      C 1207   2.781   3.926   0.619 -0.9230 -0.0205 -0.7127
  206CHL    CL1 1208   2.738   3.910   0.451  0.2341 -0.1905 -0.4009
  206CHL    CL2 1209   2.943   4.012   0.617  0.4431  0.0020  0.2007
  206CHL      H 1210   2.792   3.826   0.663  0.9804 -0.7291 -2.6491
  207CHL     CL 1211   0.787   3.683   1.099  0.3275  0.2313 -0.0947
  207CHL      C 1212   0.927   3.800   1.107 -0.0987  0.1186  0.2392
  207CHL    CL1 1213   0.867   3.976   1.100 -0.0439  0.3235 -0.0537
  207CHL    CL2 1214   1.031   3.765   1.247  0.1745 -0.2628 -0.0199
  207CHL      H 1215   0.993   3.786   1.021 -0.2472  0.7375  0.0151
  208CHL     CL 1216   4.342   0.456   1.126 -0.2252 -0.3257 -0.1847
  208CHL      C 1217   4.296   0.553   1.272 -0.2882 -0.2483 -0.6990
  208CHL    CL1 1218   4.318   0.724   1.241  0.0218  0.0129 -0.1838
  208CHL    CL2 1219   4.129   0.520   1.315 -0.3031 -0.0582  0.0902
  208CHL      H 1220   4.357   0.522   1.358 -1.0600 -1.5071 -0.5691
  209CHL     CL 1221   0.893   4.225   0.842 -0.4338 -0.0568 -0.3792
  209CHL      C 1222   0.952   4.400   0.849  0.0699  1.2345  0.1751
  209CHL    CL1 1223   1.036   4.433   1.001  0.2175  0.2901 -0.0730
  209CHL    CL2 1224   1.077   4.417   0.716 -0.0274 -0.1334  0.3556
  209CHL      H 1225   0.874   4.476   0.840  1.2086  2.5405  0.8887
  210CHL     CL 1226   2.360   1.012   4.276  0.2475  0.2360  0.2800
  210CHL      C 1227   2.355   0.833   4.324 -0.3337 -1.1238 -0.2050
  210CHL    CL1 1228   2.213   0.804   4.436  0.1749 -0.4064  0.3537
  210CHL    CL2 1229   2.338   0.749   4.168 -0.4021 -0.2790  0.0896
  210CHL      H 1230   2.448   0.801   4.374 -1.2335 -1.9407  1.0188
  211CHL     CL 1231   0.786   2.803   0.021 -0.0038 -0.1420  0.2185
  211CHL      C 1232   0.720   2.961  -0.017  0.3289 -0.7380  0.2435
  211CHL    CL1 1233   0.547   2.944  -0.021  0.0525  0.0971  0.1803
  211CHL    CL2 1234   0.770   3.081   0.113  0.3352  0.0209 -0.0489
  211CHL      H 1235   0.750   2.996  -0.116 -1.1119  1.1451  0.4149
  212CHL     CL 1236   1.299   4.086   2.504  0.2869  0.2533 -0.1212
  212CHL      C 1237   1.147   4.029   2.422 -0.4374 -0.5204  0.1711
  212CHL    CL1 1238   1.007   4.016   2.539  0.4782  0.5445  0.0745
  212CHL    CL2 1239   1.103   4.136   2.284 -0.2308 -0.0859 -0.0168
  212CHL      H 1240   1.173   3.934   2.375 -0.5612  0.9905 -3.2209
  213CHL     CL 1241   3.297   0.978   4.157 -0.1926 -0.2821  0.1398
  213CHL      C 1242   3.276   1.042   3.987 -0.6435 -0.4698  1.5038
  213CHL    CL1 1243   3.099   1.037   3.934 -0.0680  0.0157 -0.1054
  213CHL    CL2 1244   3.339   1.209   3.992 -0.1568  0.0383 -0.2714
  213CHL      H 1245   3.337   0.977   3.923 -0.4285 -1.4106  2.6044
  214CHL     CL 1246   1.465   0.534   1.323 -0.2735 -0.0302 -0.0247
  214CHL      C 1247   1.631   0.565   1.265  0.2145  0.1865  0.4010
  214CHL    CL1 1248   1.742   0.558   1.401  0.0352  0.3471  0.2971
  214CHL    CL2 1249   1.680   0.433   1.145 -0.3981 -0.2410  0.1570
  214CHL      H 1250   1.635   0.663   1.215 -1.9432 -0.7499 -1.7881
  215CHL     CL 1251   3.552   1.335   2.811 -0.0783  0.0138 -0.1004
  215CHL      C 1252   3.379   1.278   2.821 -0.0988  0.0726 -0.2036
  215CHL    CL1 1253   3.258   1.411   2.794 -0.4897  0.0047  0.0325
  215CHL    CL2 1254   3.341   1.153   2.685 -0.5059 -0.0539 -0.2952
  215CHL      H 1255   3.370   1.236   2.922 -0.0673  1.1998  0.2901
  216CHL     CL 1256   0.887   0.954   3.830  0.1223 -0.2879  0.0374
  216CHL      C 1257   0.952   0.987   4.005  0.4263 -0.4003  0.4417
  216CHL    CL1 1258   1.072   1.130   3.994  0.1223  0.4834  0.0749
  216CHL    CL2 1259   0.808   1.014   4.106  0.0492 -0.6923 -0.2558
  216CHL      H 1260   1.012   0.903   4.041  0.1805 -0.3685  0.9245
  217CHL     CL 1261   1.983   2.269   1.445 -0.2818  0.0116  0.1012
  217CHL      C 1262   2.026   2.103   1.486 -0.7460 -0.0572  0.1888
  217CHL    CL1 1263   1.894   1.996   1.428  0.0045  0.2660  0.4651
  217CHL    CL2 1264   2.192   2.070   1.409  0.3446 -0.1706 -0.3871
  217CHL      H 1265   2.037   2.091   1.595 -0.5039 -0.3275  0.1365
  218CHL     CL 1266   0.806   2.522   0.511 -0.0172 -0.1953  0.1587
  218CHL      C 1267   0.916   2.434   0.391  0.2371 -0.3332 -0.2858
  218CHL    CL1 1268   0.823   2.371   0.252 -0.0271  0.0510  0.3508
  218CHL    CL2 1269   1.050   2.545   0.336  0.1594  0.1400 -0.0683
  218CHL      H 1270   0.956   2.342   0.435  1.3776  0.4098  0.2975
  219CHL     CL 1271   0.205   1.629   2.161 -0.0346 -0.4582  0.0380
  219CHL      C 1272   0.113   1.535   2.287  0.0310  0.4840 -0.3249
  219CHL    CL1 1273   0.016   1.654   2.392  0.0068 -0.1152 -0.5171
  219CHL    CL2 1274   0.008   1.411   2.213 -0.3252  0.3782 -0.5294
  219CHL      H 1275   0.187   1.493   2.356  0.5137 -0.0577 -1.1631
  220CHL     CL 1276   1.507   2.679   3.336 -0.2154 -0.4055 -0.2730
  220CHL      C 1277   1.436   2.541   3.243 -0.0257  0.4253 -0.5709
  220CHL    CL1 1278   1.422   2.396   3.353 -0.2427  0.0068  0.2574
  220CHL    CL2 1279   1.276   2.596   3.171  0.2274  0.5923 -0.1699
  220CHL      H 1280   1.502   2.511   3.161 -1.5696 -1.0583 -1.3385
  221CHL     CL 1281   2.653   3.939   0.006  0.0545 -0.0113 -0.2130
  221CHL      C 1282   2.659   3.753   0.041  0.4229 -0.0898  0.3570
  221CHL    CL1 1283   2.564   3.660  -0.084  0.1802 -0.5698 -0.1340
  221CHL    CL2 1284   2.833   3.681   0.037  0.1955 -0.2049  0.5720
  221CHL      H 1285   2.609   3.720   0.133  0.4442 -0.5996  0.1864
  222CHL     CL 1286   4.040   2.932   1.888 -0.1265 -0.4719  0.1409
  222CHL      C 1287   3.970   3.090   1.835  0.4477  0.2702  0.3105
  222CHL    CL1 1288   3.790   3.069   1.858  0.0561 -0.3839 -0.4567
  222CHL    CL2 1289   4.027   3.242   1.918 -0.4676  0.4569  0.2814
  222CHL      H 1290   3.985   3.103   1.727 -0.5318  1.9902  0.3412
  223CHL     CL 1291   4.362   0.047   3.083 -0.4399 -0.0138  0.2472
  223CHL      C 1292   4.287   0.172   2.986  0.3007  0.1664  0.3236
  223CHL    CL1 1293   4.111   0.143   2.980  0.1515 -0.3352 -0.1062
  223CHL    CL2 1294   4.328   0.326   3.066 -0.2280 -0.2997 -0.3350
  223CHL      H 1295   4.332   0.170   2.886 -0.6249 -3.1795 -0.1382
  224CHL     CL 1296   0.549   1.376   3.709  0.0047  0.1329 -0.2910
  224CHL      C 1297   0.659   1.400   3.568 -0.5173  0.6721 -0.6080
  224CHL    CL1 1298   0.555   1.444   3.432 -0.3294 -0.3673  0.2308
  224CHL    CL2 1299   0.788   1.520   3.600  0.0577  0.7240  0.0718
  224CHL      H 1300   0.708   1.306   3.541 -0.3859  0.3499  0.6795
  225CHL     CL 1301   4.385   1.520   1.295  0.0463 -0.0960 -0.1209
  225CHL      C 1302   4.295   1.463   1.148 -0.1686 -0.3352  0.2790
  225CHL    CL1 1303   4.234   1.609   1.050  0.3327 -0.3261  0.3227
  225CHL    CL2 1304   4.422   1.380   1.044 -0.4051 -0.0243  0.0604
  225CHL      H 1305   4.214   1.397   1.183  0.9102 -1.0905  1.4519
  226CHL     CL 1306   1.622   0.316   2.833  0.0927  0.1072  0.0495
  226CHL      C 1307   1.526   0.338   2.984  0.1649 -1.4923  0.1372
  226CHL    CL1 1308   1.428   0.490   2.977  0.4752 -0.2612 -0.3732
  226CHL    CL2 1309   1.417   0.195   3.010  0.0614 -0.0646  0.2480
  226CHL      H 1310   1.600   0.354   3.063  0.9650 -0.7798 -0.7216
  227CHL     CL 1311   0.666   3.598   3.825  0.1458  0.0555  0.4573
  227CHL      C 1312   0.552   3.453   3.833 -0.0747  0.8038 -0.9562
  227CHL    CL1 1313   0.573   3.352   3.693  0.0095  0.4027 -0.1978
  227CHL    CL2 1314   0.599   3.362   3.983 -0.0330 -0.1666  0.0878
  227CHL      H 1315   0.449   3.488   3.841  0.1052  0.9026  1.6699
  228CHL     CL 1316   3.682   1.460   0.117 -0.0121  0.5248  0.3343
  228CHL      C 1317   3.691   1.641   0.111 -0.2429 -0.6122  0.4079
  228CHL    CL1 1318   3.521   1.704   0.082  0.0456  0.0777 -0.0681
  228CHL    CL2 1319   3.755   1.698   0.268 -0.1649  0.2939 -0.4962
  228CHL      H 1320   3.757   1.666   0.027  0.3866 -1.8360  0.5256
  229CHL     CL 1321   0.827   4.301   2.910 -0.3620 -0.3346  0.2452
  229CHL      C 1322   0.791   4.378   2.752  0.6109 -0.2520  0.1152
  229CHL    CL1 1323   0.619   4.349   2.721 -0.0112 -0.5287  0.1317
  229CHL    CL2 1324   0.822   4.557   2.777 -0.0339 -0.0190 -0.2292
  229CHL      H 1325   0.859   4.336   2.678  0.3834  2.4760 -1.7604
  230CHL     CL 1326   0.849   1.612   3.285  0.2714  0.1934 -0.0556
  230CHL      C 1327   0.819   1.612   3.107  0.0476 -0.1096 -0.3903
  230CHL    CL1 1328   0.969   1.597   3.014 -0.1942  0.3012 -0.4273
  230CHL    CL2 1329   0.702   1.474   3.076  0.3795  0.0435  0.2788
  230CHL      H 1330   0.767   1.708   3.094 -1.4210 -0.5875  1.4997
  231CHL     CL 1331   1.826   1.437   0.414 -0.0452 -0.1636  0.0471
  231CHL      C 1332   1.922   1.296   0.466 -0.1704  0.2050 -0.0188
  231CHL    CL1 1333   1.964   1.306   0.639 -0.5388 -0.1933  0.1955
  231CHL    CL2 1334   1.830   1.148   0.415 -0.4158  0.0601 -0.0929
  231CHL      H 1335   2.014   1.289   0.408 -0.4396 -2.2399 -0.2399
  232CHL     CL 1336   2.881   0.239   0.640 -0.1333  0.0601 -0.1352
  232CHL      C 1337   2.850   0.110   0.767  0.1843 -0.7995 -0.4355
  232CHL    CL1 1338   2.969   0.126   0.899  0.0701  0.1871  0.1929
  232CHL    CL2 1339   2.688   0.152   0.827 -0.6931  0.2652 -0.1990
  232CHL      H 1340   2.863   0.014   0.716  2.6697 -0.5524 -0.4011
  233CHL     CL 1341   3.754   0.056   2.243 -0.0374  0.4041 -0.2946
  233CHL      C 1342   3.756   0.002   2.075 -0.1338 -0.3707  0.1364
  233CHL    CL1 1343   3.703   0.129   1.966  0.4617  0.0013 -0.2842
  233CHL    CL2 1344   3.928  -0.046   2.033  0.3939 -0.0277 -0.4065
  233CHL      H 1345   3.690  -0.084   2.064 -0.1437 -0.6375  1.9659
  234CHL     CL 1346   2.479   1.452   1.350 -0.2965  0.2824  0.0279
  234CHL      C 1347   2.553   1.553   1.224 -0.6937  0.1301  0.0638
  234CHL    CL1 1348   2.497   1.729   1.234  0.2511  0.2466  0.1915
  234CHL    CL2 1349   2.735   1.555   1.259  0.4879  0.5130  0.0242
  234CHL      H 1350   2.531   1.518   1.123 -0.4174 -0.4597  0.2041
  235CHL     CL 1351   0.933   2.323   1.161 -0.0208 -0.1975  0.1263
  235CHL      C 1352   0.832   2.172   1.182  0.4851 -0.2037  0.3747
  235CHL    CL1 1353   0.780   2.099   1.017  0.2204  0.4046 -0.0699
  235CHL    CL2 1354   0.941   2.050   1.278  0.2012  0.1330 -0.4035
  235CHL      H 1355   0.740   2.199   1.235 -0.4446 -2.3519 -0.0763
  236CHL     CL 1356   2.075   4.206   0.808  0.2589 -0.0193 -0.2323
  236CHL      C 1357   2.258   4.184   0.783  0.6179 -1.0005 -0.6096
  236CHL    CL1 1358   2.338   4.117   0.925  0.4071 -0.0486  0.0573
  236CHL    CL2 1359   2.280   4.075   0.634  0.0378 -0.3503 -0.0451
  236CHL      H 1360   2.296   4.287   0.777 -0.5882 -0.2853  2.4714
  237CHL     CL 1361   4.119   4.045   4.340 -0.2372 -0.1409  0.1302
  237CHL      C 1362   4.090   3.866   4.318  0.3633 -0.2052  0.3965
  237CHL    CL1 1363   4.249   3.782   4.357  0.1983  0.3047 -0.0345
  237CHL    CL2 1364   3.968   3.804   4.432  0.4217 -0.0577  0.5937
  237CHL      H 1365   4.076   3.851   4.211  1.5001  4.1117 -0.5603
  238CHL     CL 1366   1.287   1.448   3.188 -0.1699 -0.2390  0.1693
  238CHL      C 1367   1.216   1.482   3.349  1.0265  0.0578  0.1276
  238CHL    CL1 1368   1.123   1.334   3.398 -0.1925  0.0975  0.1526
  238CHL    CL2 1369   1.340   1.515   3.472  0.4398  0.4918  0.3910
  238CHL      H 1370   1.148   1.567   3.337  0.4634 -0.2742  0.9228
  239CHL     CL 1371   0.244   0.088   3.662  0.3560 -0.3145 -0.1901
  239CHL      C 1372   0.283   0.179   3.520  0.4114 -0.1059  0.4873
  239CHL    CL1 1373   0.130   0.188   3.428 -0.2813 -0.3702  0.1117
  239CHL    CL2 1374   0.361   0.339   3.557 -0.2035  0.2586  0.0751
  239CHL      H 1375   0.357   0.129   3.457  0.6058  1.2354 -0.3992
  240CHL     CL 1376   3.845   3.870   2.170  0.3188 -0.1156  0.3546
  240CHL      C 1377   3.822   3.694   2.144 -0.2496  0.3602 -0.5190
  240CHL    CL1 1378   3.672   3.639   2.231 -0.0378  0.1180  0.4062
  240CHL    CL2 1379   3.824   3.658   1.968 -0.1114 -0.4090 -0.1861
  240CHL      H 1380   3.904   3.637   2.188 -0.9134  0.4770  0.9404
  241CHL     CL 1381   2.399   4.358   2.146  0.1862  0.1426  0.3200
  241CHL      C 1382   2.352   4.312   1.970 -0.7860 -0.1127 -0.1391
  241CHL    CL1 1383   2.464   4.190   1.897  0.6173  0.5211 -0.6073
  241CHL    CL2 1384   2.185   4.248   1.957 -0.2024 -0.0975  0.0909
  241CHL      H 1385   2.370   4.408   1.921  1.0918 -0.1721  0.3394
  242CHL     CL 1386   0.278   0.904   2.344 -0.4257 -0.0195 -0.3808
  242CHL      C 1387   0.286   1.043   2.457 -0.5485 -0.2357  0.5806
  242CHL    CL1 1388   0.190   1.176   2.404  0.2388  0.0718  0.1275
  242CHL    CL2 1389   0.210   1.003   2.611  0.0197 -0.1838  0.1027
  242CHL      H 1390   0.390   1.078   2.468 -0.1948 -0.1937 -2.2534
  243CHL     CL 1391   4.072   1.453   1.844 -0.0420  0.3807  0.4435
  243CHL      C 1392   4.253   1.476   1.814 -0.2056 -0.5980 -0.3239
  243CHL    CL1 1393   4.262   1.553   1.659  0.3862  0.4539  0.1759
  243CHL    CL2 1394   4.316   1.579   1.943  0.2234  0.0151 -0.0216
  243CHL      H 1395   4.301   1.377   1.817  1.3362  0.1062 -0.9509
  244CHL     CL 1396   1.888   2.376   4.063  0.1240 -0.0203 -0.5909
  244CHL      C 1397   1.900   2.349   3.887 -0.2807  0.0079  0.5232
  244CHL    CL1 1398   2.071   2.358   3.827  0.1351 -0.0648 -0.1536
  244CHL    CL2 1399   1.828   2.192   3.840  0.3010  0.4253 -0.0707
  244CHL      H 1400   1.851   2.427   3.828  1.5628  0.7197 -0.1241
  245CHL     CL 1401   4.018   0.691   2.780 -0.1510 -0.1025  0.1674
  245CHL      C 1402   4.013   0.747   2.608 -0.4293 -0.6111  0.0499
  245CHL    CL1 1403   4.080   0.909   2.587  0.0161 -0.0536  0.0087
  245CHL    CL2 1404   4.097   0.627   2.502  0.3347 -0.0721  0.1399
  245CHL      H 1405   3.906   0.749   2.585 -0.4607 -0.7582  0.1838
  246CHL     CL 1406   3.748   4.134   1.817 -0.0128  0.1063 -0.0611
  246CHL      C 1407   3.859   3.988   1.821  1.0242 -0.3737  0.1398
  246CHL    CL1 1408   3.888   3.914   1.656  0.0824  0.1571 -0.0421
  246CHL    CL2 1409   4.017   4.041   1.904  0.3971 -0.4671 -0.0927
  246CHL      H 1410   3.811   3.905   1.875  0.8237 -0.4384 -0.1345
  247CHL     CL 1411   3.924   2.310   3.006  0.0343 -0.1889 -0.5032
  247CHL      C 1412   4.088   2.262   2.946 -0.2574 -0.3939 -0.1650
  247CHL    CL1 1413   4.160   2.149   3.060  0.3815 -0.2069 -0.2043
  247CHL    CL2 1414   4.082   2.186   2.787 -0.1278  0.2074  0.6355
  247CHL      H 1415   4.162   2.341   2.932  0.4481 -1.0913 -0.5319
  248CHL     CL 1416   4.088   4.220   3.269 -0.2132  0.0960  0.0464
  248CHL      C 1417   4.022   4.384   3.281  0.3460 -0.2799 -0.2742
  248CHL    CL1 1418   3.859   4.376   3.366 -0.0020 -0.0771  0.2792
  248CHL    CL2 1419   4.143   4.480   3.369  0.2107 -0.2040  0.0588
  248CHL      H 1420   4.015   4.437   3.185 -1.2930 -1.1265 -0.6574
  249CHL     CL 1421   1.196   0.106   2.451  0.0811  0.1275 -0.5779
  249CHL      C 1422   1.082   0.216   2.532 -0.6794 -0.4996 -0.5467
  249CHL    CL1 1423   1.157   0.320   2.651  0.1211  0.0537 -0.2266
  249CHL    CL2 1424   0.987   0.308   2.424 -0.0853 -0.3396  0.1921
  249CHL      H 1425   1.013   0.155   2.591 -0.4212 -0.4858 -0.2280
  250CHL     CL 1426   4.276   1.280   2.509  0.1079  0.3883  0.1430
  250CHL      C 1427   4.191   1.344   2.651  0.2779 -0.5048 -0.0497
  250CHL    CL1 1428   4.195   1.523   2.638  0.0320  0.0516  0.0780
  250CHL    CL2 1429   4.018   1.290   2.665 -0.1067  0.0137 -0.2586
  250CHL      H 1430   4.245   1.314   2.741 -1.1867 -1.1944  0.6430
  251CHL     CL 1431   1.035   1.752   0.303 -0.0189  0.0291 -0.1226
  251CHL      C 1432   1.056   1.587   0.368 -0.0439 -0.0285  0.0928
  251CHL    CL1 1433   1.085   1.462   0.241  0.0158 -0.2810  0.6796
  251CHL    CL2 1434   1.185   1.592   0.488 -0.1070 -0.1711  0.2037
  251CHL      H 1435   0.970   1.556   0.427  0.3427  0.0651  0.7175
  252CHL     CL 1436   0.808   0.324   3.195  0.0696  0.0212 -0.1995
  252CHL      C 1437   0.852   0.473   3.281 -0.4378 -0.0027  0.1426
  252CHL    CL1 1438   0.804   0.459   3.453 -0.4032  0.0851  0.2943
  252CHL    CL2 1439   1.028   0.511   3.279  0.1005  0.0271 -0.2969
  252CHL      H 1440   0.796   0.555   3.234 -0.0098 -0.3066 -0.9131
  253CHL     CL 1441   3.893   0.987   1.171 -0.0761 -0.0296 -0.0693
  253CHL      C 1442   3.949   0.824   1.244 -0.7606  0.3656 -0.0416
  253CHL    CL1 1443   3.873   0.803   1.406  0.3379  0.0947  0.1468
  253CHL    CL2 1444   3.917   0.691   1.123 -0.0286 -0.0478 -0.0525
  253CHL      H 1445   4.057   0.832   1.262 -0.3483 -1.9905 -1.2087
  254CHL     CL 1446   2.785   1.228   1.041  0.2688  0.0634  0.4301
  254CHL      C 1447   2.775   1.053   0.983  0.0222  0.6334  0.1779
  254CHL    CL1 1448   2.642   0.978   1.080 -0.2578 -0.0392  0.2585
  254CHL    CL2 1449   2.737   1.039   0.806 -0.1846  0.5861 -0.2527
  254CHL      H 1450   2.871   1.002   0.998  0.2641 -0.1764 -3.1571
  255CHL     CL 1451   4.073   4.308   0.206 -0.2648 -0.7063 -0.0507
  255CHL      C 1452   4.024   4.451   0.119  0.2420 -0.4519 -0.6609
  255CHL    CL1 1453   4.038   4.593   0.232  0.4458  0.4303 -0.1351
  255CHL    CL2 1454   4.105   4.488  -0.043  0.0366  0.1484  0.0948
  255CHL      H 1455   3.918   4.437   0.093  0.2744 -1.8167 -0.1499
  256CHL     CL 1456   1.648   1.290   4.048 -0.1510 -0.2199 -0.3525
  256CHL      C 1457   1.484   1.202   4.045  0.2277  0.4457  0.2399
  256CHL    CL1 1458   1.482   1.066   4.164  0.1411  0.3044  0.4248
  256CHL    CL2 1459   1.350   1.313   4.085 -0.5124  0.0684 -0.1202
  256CHL      H 1460   1.476   1.156   3.946  1.9460  1.5833 -0.4649
  257CHL     CL 1461   3.389   1.285   1.256  0.1391  0.0801  0.4644
  257CHL      C 1462   3.260   1.223   1.368 -0.5058  0.4803 -0.6068
  257CHL    CL1 1463   3.147   1.105   1.283  0.1195  0.1468  0.1263
  257CHL    CL2 1464   3.354   1.141   1.507  0.0675  0.4049 -0.1633
  257CHL      H 1465   3.214   1.309   1.417 -0.6936 -0.1045  0.2738
  258CHL     CL 1466   1.397   3.336   1.580  0.1204  0.2089 -0.1242
  258CHL      C 1467   1.264   3.247   1.489  0.3106 -1.0401 -0.6846
  258CHL    CL1 1468   1.266   3.072   1.521 -0.3617  0.0543  0.3171
  258CHL    CL2 1469   1.102   3.307   1.534 -0.0781 -0.0845  0.2168
  258CHL      H 1470   1.273   3.267   1.381  2.4592  1.4186 -0.1490
  259CHL     CL 1471   0.372   1.504   1.796 -0.0442  0.2515 -0.0526
  259CHL      C 1472   0.499   1.619   1.733  0.3277 -0.9957 -0.4146
  259CHL    CL1 1473   0.564   1.729   1.859  0.2205  0.1656 -0.3370
  259CHL    CL2 1474   0.637   1.521   1.663 -0.1895  0.1496 -0.0043
  259CHL      H 1475   0.444   1.670   1.654 -0.7281  0.6192  1.2972
  260CHL     CL 1476   0.257   3.690   0.584  0.6302 -0.1190  0.2493
  260CHL      C 1477   0.362   3.564   0.491  0.1171 -1.1176  0.3440
  260CHL    CL1 1478   0.412   3.423   0.598  0.3755 -0.4083 -0.1653
  260CHL    CL2 1479   0.273   3.498   0.354  0.2144  0.0662 -0.1769
  260CHL      H 1480   0.453   3.619   0.464 -1.2250  1.0703  0.0341
  261CHL     CL 1481   2.807   3.371   1.948  0.1772 -0.0912  0.2918
  261CHL      C 1482   2.971   3.363   1.893  0.0033 -0.4966  0.5188
  261CHL    CL1 1483   3.050   3.213   1.951  0.3952  0.1333 -0.3479
  261CHL    CL2 1484   2.986   3.380   1.712 -0.0596  0.0544  0.1891
  261CHL      H 1485   3.032   3.445   1.932 -1.4475  0.5875  0.5755
  262CHL     CL 1486   3.477   3.106   4.106  0.2321  0.0918  0.2242
  262CHL      C 1487   3.503   2.926   4.076  0.1901 -1.0332 -0.2024
  262CHL    CL1 1488   3.677   2.879   4.112  0.0539  0.3844 -0.2774
  262CHL    CL2 1489   3.387   2.826   4.161  0.0031  0.6272  0.1153
  262CHL      H 1490   3.486   2.916   3.968  2.0038 -1.4017 -0.4969
  263CHL     CL 1491   2.900   0.832   2.563  0.1877 -0.5833  0.2752
  263CHL      C 1492   2.972   0.957   2.661 -0.0285  0.0001  0.7233
  263CHL    CL1 1493   2.894   1.110   2.609  0.1290  0.2046  0.1792
  263CHL    CL2 1494   2.931   0.924   2.823 -0.6249 -0.3276 -0.2534
  263CHL      H 1495   3.080   0.962   2.644 -0.5112  1.1896 -2.7926
  264CHL     CL 1496   1.628   0.135   2.400  0.2841  0.0983 -0.0330
  264CHL      C 1497   1.605   0.079   2.568 -0.9436  0.8561 -0.9370
  264CHL    CL1 1498   1.480  -0.043   2.587  0.0215 -0.3247  0.0419
  264CHL    CL2 1499   1.757   0.019   2.640  0.0520  0.4539  0.4388
  264CHL      H 1500   1.576   0.171   2.619  0.8656  1.0396 -0.1660
  265CHL     CL 1501   2.536   4.233   3.457  0.2845 -0.3897  0.3062
  265CHL      C 1502   2.487   4.255   3.288 -0.4872 -0.1384  0.5799
  265CHL    CL1 1503   2.563   4.116   3.202  0.0911  0.1745  0.3691
  265CHL    CL2 1504   2.305   4.264   3.263  0.0437  0.0421  0.5542
  265CHL      H 1505   2.540   4.345   3.256 -0.5165 -0.4303 -0.3069
  266CHL     CL 1506   1.498   3.616   1.097 -0.0256 -0.1280  0.1576
  266CHL      C 1507   1.422   3.453   1.052  0.7542 -0.3980 -0.1203
  266CHL    CL1 1508   1.544   3.322   1.047  0.2811  0.0539 -0.1857
  266CHL    CL2 1509   1.292   3.418   1.157 -0.1735  0.3874  0.3355
  266CHL      H 1510   1.373   3.464   0.955 -1.7592  2.6346  1.3181
  267CHL     CL 1511   0.536   1.145   3.145  0.0249 -0.1264  0.3711
  267CHL      C 1512   0.505   0.980   3.081  0.3626 -0.1937 -0.6741
  267CHL    CL1 1513   0.451   0.863   3.209 -0.6503 -0.3404  0.0371
  267CHL    CL2 1514   0.386   0.958   2.940 -0.5671  0.6348 -0.0344
  267CHL      H 1515   0.595   0.944   3.031  0.7181  1.1237 -1.0252
  268CHL     CL 1516   0.341   2.466   0.878 -0.3688 -0.0827 -0.2579
  268CHL      C 1517   0.340   2.329   0.987 -0.5254 -0.0750  0.3922
  268CHL    CL1 1518   0.508   2.313   1.029 -0.1580  0.0606 -0.0171
  268CHL    CL2 1519   0.248   2.371   1.135  0.2379 -0.0572 -0.1804
  268CHL      H 1520   0.308   2.240   0.933 -0.3905 -0.0308  0.2366
  269CHL     CL 1521   3.000   2.824   4.239  0.4902  0.0764  0.0157
  269CHL      C 1522   2.891   2.727   4.342  0.9196 -1.1509  0.0521
  269CHL    CL1 1523   2.959   2.567   4.370 -0.1637 -0.1047 -0.0370
  269CHL    CL2 1524   2.864   2.801   4.502 -0.0916  0.1495  0.0648
  269CHL      H 1525   2.794   2.717   4.293 -0.2745  2.5311  1.3322
  270CHL     CL 1526   2.805   3.848   2.712 -0.0495 -0.1405 -0.3510
  270CHL      C 1527   2.630   3.809   2.740 -0.3264 -0.1178 -0.0196
  270CHL    CL1 1528   2.552   3.950   2.825  0.0418 -0.0711 -0.6100
  270CHL    CL2 1529   2.538   3.786   2.583 -0.0129  0.1233  0.6612
  270CHL      H 1530   2.621   3.718   2.801 -0.0816 -1.1409 -1.4526
  271CHL     CL 1531   4.044   3.033   0.491  0.1866  0.0215  0.2876
  271CHL      C 1532   3.872   3.035   0.433 -0.3111  0.3891 -0.2776
  271CHL    CL1 1533   3.857   3.044   0.254 -0.3879 -0.0435 -0.0725
  271CHL    CL2 1534   3.782   2.897   0.500 -0.1485  0.0183  0.0519
  271CHL      H 1535   3.832   3.130   0.471  0.3072 -0.2112  2.0389
  272CHL     CL 1536   0.250   4.199   2.143  0.5168 -0.2199  0.5328
  272CHL      C 1537   0.212   4.029   2.186  0.3464 -0.7250 -0.4961
  272CHL    CL1 1538   0.298   3.913   2.088  0.2283 -0.1240 -0.3064
  272CHL    CL2 1539   0.246   3.982   2.359 -0.3990 -0.3040 -0.1088
  272CHL      H 1540   0.106   4.008   2.166 -0.5917  2.8761  0.0204
  273CHL     CL 1541   0.986   2.641   3.697 -0.0541 -0.5524  0.1265
  273CHL      C 1542   1.004   2.615   3.515 -0.2101  0.0555  0.2611
  273CHL    CL1 1543   1.125   2.490   3.467  0.1200  0.2899 -0.2492
  273CHL    CL2 1544   0.847   2.573   3.453  0.4227  0.3941 -0.0363
  273CHL      H 1545   1.034   2.711   3.473  2.3421 -1.3651 -1.3723
  274CHL     CL 1546   1.859   2.877   0.535  0.0086  0.0480  0.0856
  274CHL      C 1547   1.710   2.898   0.634  0.1703  0.0587 -0.4206
  274CHL    CL1 1548   1.701   2.763   0.746  0.2139 -0.1270 -0.5222
  274CHL    CL2 1549   1.731   3.056   0.716 -0.4000 -0.3676  0.1698
  274CHL      H 1550   1.617   2.909   0.576 -0.8310 -0.7017  0.9635
  275CHL     CL 1551   3.772   1.857   2.701 -0.3149  0.1721  0.3610
  275CHL      C 1552   3.924   1.878   2.784  0.4952  0.6654 -0.5961
  275CHL    CL1 1553   3.892   1.951   2.945  0.1486 -0.2324 -0.2118
  275CHL    CL2 1554   4.010   1.725   2.805  0.2810  0.7383 -0.1236
  275CHL      H 1555   3.979   1.952   2.726  1.2139 -0.4858 -1.4334
  276CHL     CL 1556   3.937   0.535   2.157 -0.2989  0.0169  0.0653
  276CHL      C 1557   3.764   0.471   2.174  0.0110 -0.4488  0.1725
  276CHL    CL1 1558   3.724   0.453   2.357  0.6170  0.3433  0.0272
  276CHL    CL2 1559   3.654   0.598   2.099 -0.3161  0.1372  0.2836
  276CHL      H 1560   3.759   0.376   2.119 -2.0492  0.2268 -0.9482
  277CHL     CL 1561   3.267   0.486   1.895  0.0551  0.2242  0.1899
  277CHL      C 1562   3.268   0.381   2.040  0.6317 -0.6313 -0.6239
  277CHL    CL1 1563   3.286   0.214   1.977 -0.2338 -0.1155 -0.0376
  277CHL    CL2 1564   3.406   0.422   2.152  0.0333  0.2212 -0.1612
  277CHL      H 1565   3.174   0.399   2.093  1.2586  1.4784 -0.1285
  278CHL     CL 1566   3.396   0.563   3.648  0.2592  0.1124  0.0100
  278CHL      C 1567   3.366   0.586   3.466  0.2840 -0.3774  0.3871
  278CHL    CL1 1568   3.318   0.435   3.402  0.1226  0.2140  0.1432
  278CHL    CL2 1569   3.249   0.724   3.428 -0.1012  0.0650  0.2323
  278CHL      H 1570   3.463   0.619   3.426 -1.1023  2.1289 -1.1877
  279CHL     CL 1571   3.971   3.420   2.337 -0.1215  0.2245  0.2826
  279CHL      C 1572   4.059   3.352   2.486 -0.9928  0.3057  0.1757
  279CHL    CL1 1573   4.094   3.179   2.457 -0.2347  0.0267  0.3254
  279CHL    CL2 1574   4.209   3.437   2.503  0.1959 -0.2463 -0.6228
  279CHL      H 1575   3.995   3.358   2.574  0.7444 -0.1277  1.5123
  280CHL     CL 1576   4.258   1.188   4.026 -0.0339 -0.0457 -0.1372
  280CHL      C 1577   4.233   1.129   3.867  0.1540 -1.3396  0.0670
  280CHL    CL1 1578   4.084   1.201   3.799  0.1989  0.3842 -0.2862
  280CHL    CL2 1579   4.360   1.166   3.749 -0.3632  0.1223 -0.0636
  280CHL      H 1580   4.224   1.020   3.863  0.9387 -1.3641 -1.8721
  281CHL     CL 1581   0.812   0.662   0.801 -0.1639 -0.1093 -0.0365
  281CHL      C 1582   0.910   0.512   0.799  0.4228 -0.3537 -0.2412
  281CHL    CL1 1583   0.974   0.487   0.968  0.2388  0.1953  0.1095
  281CHL    CL2 1584   0.783   0.378   0.754 -0.2827 -0.3563  0.0936
  281CHL      H 1585   0.991   0.521   0.725 -0.5126 -0.0756 -1.2464
  282CHL     CL 1586   2.082   0.774   2.634  0.0911 -0.0137  0.0248
  282CHL      C 1587   2.047   0.607   2.575 -0.4616  0.1375 -0.3360
  282CHL    CL1 1588   2.019   0.503   2.726  0.1695  0.1251 -0.0667
  282CHL    CL2 1589   1.907   0.605   2.465 -0.3082 -0.1670  0.3099
  282CHL      H 1590   2.138   0.569   2.529  0.0647  0.6990  0.2161
  283CHL     CL 1591   1.776   3.572   1.886  0.1797  0.4473 -0.5164
  283CHL      C 1592   1.948   3.527   1.909 -0.5694 -0.2436  0.5838
  283CHL    CL1 1593   1.973   3.352   1.886  0.0737  0.2471  0.1896
  283CHL    CL2 1594   2.037   3.626   1.792  0.2096 -0.6330 -0.1771
  283CHL      H 1595   1.980   3.552   2.010 -0.0641 -1.7408  0.8077
  284CHL     CL 1596   1.125   3.175   0.235 -0.3010 -0.0891 -0.5056
  284CHL      C 1597   1.162   3.028   0.333  0.4331  0.4087  0.7257
  284CHL    CL1 1598   1.172   2.888   0.231 -0.2952 -0.2290  0.2709
  284CHL    CL2 1599   1.309   3.063   0.417 -0.0981  0.1881  0.1914
  284CHL      H 1600   1.085   3.013   0.409  0.0488 -1.1453  0.0526
  285CHL     CL 1601   1.539   2.904   2.386  0.4074 -0.0543  0.4519
  285CHL      C 1602   1.612   2.897   2.226 -0.1836 -0.1914 -0.5975
  285CHL    CL1 1603   1.783   2.903   2.257  0.1233 -0.2223  0.0553
  285CHL    CL2 1604   1.569   2.739   2.155 -0.3206  0.0895 -0.0160
  285CHL      H 1605   1.582   2.981   2.163  1.1518  0.2796 -0.6496
  286CHL     CL 1606   3.123   1.816   3.605  0.0252 -0.1015  0.0002
  286CHL      C 1607   3.196   1.939   3.727  0.0844 -0.1832 -0.3820
  286CHL    CL1 1608   3.312   2.040   3.640 -0.1862 -0.0169 -0.1079
  286CHL    CL2 1609   3.063   2.045   3.773 -0.4013  0.5225  0.3992
  286CHL      H 1610   3.257   1.896   3.806  2.6396  1.6909 -1.2287
  287CHL     CL 1611   0.777   3.984   0.573 -0.2941  0.3699  0.3977
  287CHL      C 1612   0.756   4.022   0.402  0.4182  0.5609 -0.3167
  287CHL    CL1 1613   0.838   3.903   0.293  0.3741 -0.0866  0.0418
  287CHL    CL2 1614   0.580   4.017   0.369 -0.0776 -0.0297  0.4349
  287CHL      H 1615   0.802   4.117   0.375  2.1687 -0.3296 -0.6379
  288CHL     CL 1616   1.339   3.553   2.235  0.2176 -0.2684 -0.0484
  288CHL      C 1617   1.177   3.544   2.312 -0.7461 -0.1814 -0.5092
  288CHL    CL1 1618   1.161   3.683   2.429 -0.2982 -0.3731 -0.2227
  288CHL    CL2 1619   1.058   3.551   2.178  0.1230 -0.3194  0.3690
  288CHL      H 1620   1.182   3.446   2.361 -3.0337  0.2498  0.7160
  289CHL     CL 1621   1.982   4.285   1.140  0.4089 -0.2017 -0.2558
  289CHL      C 1622   2.112   4.348   1.240 -0.4686 -0.2575 -0.0342
  289CHL    CL1 1623   2.223   4.461   1.151 -0.3324  0.1931 -0.0730
  289CHL    CL2 1624   2.041   4.423   1.388 -0.0183  0.2475  0.3340
  289CHL      H 1625   2.172   4.261   1.269 -0.5750 -0.7046 -1.1186
  290CHL     CL 1626   4.357   4.138   0.775 -0.1374  0.0838  0.1868
  290CHL      C 1627   4.230   4.193   0.869  0.4743 -0.1259 -0.1079
  290CHL    CL1 1628   4.115   4.060   0.897  0.2612 -0.1762 -0.1498
  290CHL    CL2 1629   4.290   4.267   1.030  0.0980  0.0533 -0.0894
  290CHL      H 1630   4.181   4.278   0.819 -0.3656  0.1041  1.0649
  291CHL     CL 1631   0.994   2.141   2.770 -0.2164  0.0048  0.5611
  291CHL      C 1632   0.967   2.310   2.731 -0.0708 -0.1118  0.0031
  291CHL    CL1 1633   1.123   2.402   2.746 -0.1337 -0.3059  0.1962
  291CHL    CL2 1634   0.913   2.325   2.564 -0.3006  0.0347  0.4013
  291CHL      H 1635   0.895   2.368   2.790 -0.4110  1.1347 -1.5707
  292CHL     CL 1636   3.918   1.410   1.137  0.2527  0.3965  0.0489
  292CHL      C 1637   3.776   1.373   1.028 -0.3689 -0.3014 -0.6066
  292CHL    CL1 1638   3.633   1.456   1.077  0.0022  0.2278 -0.3660
  292CHL    CL2 1639   3.820   1.443   0.871 -0.2050 -0.1722  0.0155
  292CHL      H 1640   3.757   1.266   1.019 -0.4405 -0.2537 -1.0726
  293CHL     CL 1641   2.333   3.925   2.252  0.1008  0.1955  0.1754
  293CHL      C 1642   2.219   3.788   2.274  0.3956 -0.8118 -0.2393
  293CHL    CL1 1643   2.070   3.850   2.365 -0.1698 -0.0639  0.2935
  293CHL    CL2 1644   2.160   3.704   2.115  0.0747 -0.1928 -0.3854
  293CHL      H 1645   2.271   3.717   2.340  0.5101 -0.3037  0.2248
  294CHL     CL 1646   3.028   3.384   2.266  0.2886 -0.1862  0.3004
  294CHL      C 1647   3.034   3.273   2.398 -0.0176  0.1600  0.2178
  294CHL    CL1 1648   3.131   3.124   2.369  0.0561  0.1541  0.1463
  294CHL    CL2 1649   3.124   3.354   2.529 -0.1391 -0.3144 -0.2447
  294CHL      H 1650   2.933   3.245   2.430 -0.6567  0.9512 -1.0223
  295CHL     CL 1651   1.881   0.666   4.004  0.0849  0.1510  0.3757
  295CHL      C 1652   1.729   0.661   3.910 -0.1110  0.6584 -0.3280
  295CHL    CL1 1653   1.624   0.805   3.953  0.2466  0.1498 -0.5796
  295CHL    CL2 1654   1.758   0.648   3.733 -0.2048  0.5014 -0.1691
  295CHL      H 1655   1.672   0.579   3.955  0.5946  0.5393  0.3637
  296CHL     CL 1656   2.701   0.622   4.164 -0.1572 -0.0093  0.4709
  296CHL      C 1657   2.838   0.569   4.263  0.1307 -0.7284 -0.8191
  296CHL    CL1 1658   2.967   0.706   4.268 -0.0639 -0.0570 -0.0692
  296CHL    CL2 1659   2.779   0.547   4.435 -0.3262  0.1318  0.0517
  296CHL      H 1660   2.879   0.473   4.229 -1.0106 -1.3438 -0.5075
  297CHL     CL 1661   2.749   0.134   4.183  0.0691 -0.1199 -0.3530
  297CHL      C 1662   2.726   0.098   4.353 -0.3264 -0.2024  0.1623
  297CHL    CL1 1663   2.620   0.218   4.418 -0.0492 -0.5905  0.0568
  297CHL    CL2 1664   2.666  -0.064   4.375 -0.0657  0.0426 -0.1253
  297CHL      H 1665   2.820   0.106   4.408  0.2014  0.1598 -0.7741
  298CHL     CL 1666   1.209   3.112   3.000  0.3034  0.2114  0.1183
  298CHL      C 1667   1.342   3.026   2.919 -0.8322  0.1967  0.5552
  298CHL    CL1 1668   1.373   2.872   2.998 -0.1371  0.2158  0.2943
  298CHL    CL2 1669   1.297   3.006   2.744  0.2131 -0.1378 -0.2059
  298CHL      H 1670   1.438   3.079   2.916 -0.6340 -0.1941 -0.1169
  299CHL     CL 1671   3.825   3.424   3.081  0.0787 -0.0616 -0.1964
  299CHL      C 1672   3.764   3.310   3.194 -0.0132 -0.1228  0.0469
  299CHL    CL1 1673   3.892   3.258   3.308  0.0988  0.0500  0.0184
  299CHL    CL2 1674   3.627   3.380   3.287  0.1096 -0.0397 -0.0146
  299CHL      H 1675   3.734   3.219   3.139  1.6274  0.1582 -1.4101
  300CHL     CL 1676   4.388   4.258   3.500  0.4115 -0.2816  0.0026
  300CHL      C 1677   4.464   4.096   3.528  0.0477  0.5399 -0.5882
  300CHL    CL1 1678   4.542   4.035   3.383  0.4027 -0.3252  0.2902
  300CHL    CL2 1679   4.589   4.111   3.655 -0.3036  0.1188 -0.2692
  300CHL      H 1680   4.386   4.031   3.568  1.7282 -2.1797 -1.4421
  301CHL     CL 1681   1.179   0.920   3.519 -0.1453  0.1307 -0.0892
  301CHL      C 1682   1.198   0.745   3.580 -0.8215 -0.4113  0.6204
  301CHL    CL1 1683   1.280   0.738   3.746  0.1162 -0.0996 -0.2235
  301CHL    CL2 1684   1.036   0.672   3.584  0.0057 -0.2056  0.1811
  301CHL      H 1685   1.260   0.694   3.506  0.3981  2.4518 -0.4677
  302CHL     CL 1686   3.476   1.569   3.338 -0.0694 -0.0653  0.1124
  302CHL      C 1687   3.423   1.427   3.451 -0.8469  0.1756 -0.3543
  302CHL    CL1 1688   3.486   1.450   3.619  0.0100  0.0027 -0.0796
  302CHL    CL2 1689   3.244   1.411   3.451  0.2707 -0.0260  0.0348
  302CHL      H 1690   3.472   1.336   3.416 -0.6350  0.2214 -0.1826
  303CHL     CL 1691   0.111   4.242   4.373  0.4482  0.3812 -0.0938
  303CHL      C 1692   0.118   4.288   4.193  0.1748 -0.4219  0.0332
  303CHL    CL1 1693   0.033   4.170   4.084  0.1558  0.2154  0.1606
  303CHL    CL2 1694   0.054   4.451   4.161 -0.1363 -0.3088  0.0656
  303CHL      H 1695   0.225   4.296   4.168  0.6372  0.0600  2.0042
  304CHL     CL 1696   4.206   2.473   1.043 -0.0998  0.6024 -0.5277
  304CHL      C 1697   4.066   2.370   1.020  0.1131 -0.1606 -1.3428
  304CHL    CL1 1698   4.045   2.267   1.174 -0.0138 -0.0048 -0.1770
  304CHL    CL2 1699   3.915   2.465   1.001 -0.0018 -0.3353  0.1513
  304CHL      H 1700   4.079   2.303   0.935  1.2563 -0.7044 -0.7611
  305CHL     CL 1701   0.976   4.339   4.147 -0.0049  0.1381  0.0926
  305CHL      C 1702   1.042   4.358   3.982  0.5951  0.2480  0.7358
  305CHL    CL1 1703   0.931   4.267   3.867 -0.0135  0.1423 -0.0334
  305CHL    CL2 1704   1.031   4.522   3.917  0.0537 -0.6994  0.2078
  305CHL      H 1705   1.136   4.303   3.969  0.0912 -0.4607 -0.0647
  306CHL     CL 1706   2.382   0.417   0.927  0.2558  0.4174 -0.2335
  306CHL      C 1707   2.301   0.344   0.780 -0.6539 -0.1766  0.4240
  306CHL    CL1 1708   2.301   0.163   0.782 -0.1515  0.0125  0.1319
  306CHL    CL2 1709   2.124   0.390   0.767 -0.5152  0.2605  0.0335
  306CHL      H 1710   2.355   0.375   0.690 -0.4260 -0.7086  0.3687
  307CHL     CL 1711   0.129   3.751   3.980  0.1776  0.3953 -0.0223
  307CHL      C 1712  -0.024   3.807   3.900  0.7065 -0.1925 -0.0406
  307CHL    CL1 1713   0.003   3.817   3.719 -0.4233 -0.2608 -0.3886
  307CHL    CL2 1714  -0.159   3.711   3.947  0.5492  0.0324  0.1265
  307CHL      H 1715  -0.043   3.909   3.937 -0.0587 -0.3216 -0.0602
  308CHL     CL 1716   1.308   3.955   2.138  0.0261 -0.0138  0.0085
  308CHL      C 1717   1.182   3.854   2.066 -0.6303  0.0133  0.0195
  308CHL    CL1 1718   1.055   3.963   1.999  0.1071  0.0459 -0.1800
  308CHL    CL2 1719   1.240   3.752   1.931 -0.1159  0.3607  0.1207
  308CHL      H 1720   1.135   3.796   2.146 -0.1078 -0.0214  0.3035
  309CHL     CL 1721   1.137   3.549   0.850  0.1804 -0.0426 -0.1660
  309CHL      C 1722   1.083   3.385   0.788 -0.3557 -0.0215  0.4659
  309CHL    CL1 1723   0.978   3.310   0.907  0.3268  0.3242 -0.3965
  309CHL    CL2 1724   1.220   3.278   0.747  0.3976  0.3071  0.4474
  309CHL      H 1725   1.030   3.399   0.693 -0.5779 -0.9457  0.4383
  310CHL     CL 1726   1.603   1.497   3.088  0.0170  0.2970  0.0661
  310CHL      C 1727   1.717   1.448   2.963 -0.1385 -0.0919 -0.9886
  310CHL    CL1 1728   1.636   1.341   2.846  0.2999 -0.2054 -0.0600
  310CHL    CL2 1729   1.776   1.599   2.875  0.0806 -0.0110 -0.1202
  310CHL      H 1730   1.808   1.398   2.997  0.0885  1.1600  0.3341
  311CHL     CL 1731   2.656   0.417   0.456  0.0746 -0.1843  0.0800
  311CHL      C 1732   2.604   0.581   0.398 -0.2897  0.1747 -0.5964
  311CHL    CL1 1733   2.448   0.620   0.466 -0.2048  0.4011 -0.1150
  311CHL    CL2 1734   2.724   0.710   0.452 -0.1769  0.0295 -0.3634
  311CHL      H 1735   2.609   0.577   0.289 -1.1006 -0.2588 -0.6217
  312CHL     CL 1736   3.112   3.203   4.169 -0.1178  0.0587  0.2944
  312CHL      C 1737   3.075   3.316   4.301 -0.2399 -0.0108 -0.0219
  312CHL    CL1 1738   3.098   3.214   4.450  0.2985  0.7210 -0.4341
  312CHL    CL2 1739   3.181   3.456   4.315  0.4920 -0.0026  0.1731
  312CHL      H 1740   2.970   3.343   4.286 -0.0796  0.2505 -0.7134
  313CHL     CL 1741   3.145   4.117   2.934  0.3083 -0.3514  0.0229
  313CHL      C 1742   3.137   3.960   3.029  0.2125  0.5215 -0.1877
  313CHL    CL1 1743   2.977   3.898   3.031 -0.2547 -0.1166 -0.4736
  313CHL    CL2 1744   3.278   3.846   2.983 -0.4585 -0.0145 -0.2521
  313CHL      H 1745   3.144   3.986   3.135 -2.8300  0.8770  0.0172
  314CHL     CL 1746   2.452   4.314   1.479  0.0347  0.3577  0.1523
  314CHL      C 1747   2.574   4.410   1.386  0.2981 -0.2103 -0.0203
  314CHL    CL1 1748   2.750   4.382   1.442 -0.0159  0.3267 -0.0069
  314CHL    CL2 1749   2.566   4.365   1.211  0.1432 -0.1078  0.1349
  314CHL      H 1750   2.551   4.517   1.390 -0.8779 -0.4779  0.5587
  315CHL     CL 1751   4.186   4.127   1.370  0.5276 -0.0129  0.2372
  315CHL      C 1752   4.196   3.939   1.389 -0.2329  0.4236 -0.1171
  315CHL    CL1 1753   4.271   3.899   1.551  0.0385 -0.0877  0.0854
  315CHL    CL2 1754   4.039   3.857   1.372 -0.0229  0.0165 -0.3761
  315CHL      H 1755   4.260   3.904   1.308 -2.4506 -2.6477 -0.7156
  316CHL     CL 1756   1.768   4.357   3.567 -0.0182 -0.2686 -0.0551
  316CHL      C 1757   1.895   4.241   3.629 -0.1209 -0.7135  0.0085
  316CHL    CL1 1758   1.979   4.308   3.771 -0.1647 -0.0718  0.0376
  316CHL    CL2 1759   1.817   4.092   3.685  0.1248 -0.5331 -0.1199
  316CHL      H 1760   1.966   4.220   3.549 -0.2887 -1.0210 -0.0616
  317CHL     CL 1761   0.483   1.985   0.857 -0.0035  0.0234  0.0502
  317CHL      C 1762   0.481   2.037   0.677  0.0790 -0.7076  0.8241
  317CHL    CL1 1763   0.326   2.124   0.633 -0.0521  0.1778 -0.0979
  317CHL    CL2 1764   0.618   2.138   0.641  0.4180 -0.1999  0.2300
  317CHL      H 1765   0.473   1.948   0.614 -1.6497  0.7128 -1.0925
  318CHL     CL 1766   2.206   0.483   3.183 -0.2043  0.0787 -0.0865
  318CHL      C 1767   2.193   0.613   3.312 -0.5003  0.5067  0.2237
  318CHL    CL1 1768   2.108   0.554   3.453  0.4021 -0.1735 -0.1210
  318CHL    CL2 1769   2.354   0.669   3.358  0.0015 -0.0205  0.3037
  318CHL      H 1770   2.135   0.695   3.269 -1.1353  0.1280  0.3486
  319CHL     CL 1771   3.676   0.087   0.759  0.4919  0.0900 -0.6273
  319CHL      C 1772   3.833   0.064   0.680  0.2717  0.1996 -0.2793
  319CHL    CL1 1773   3.954   0.034   0.816  0.1073  0.1425  0.5352
  319CHL    CL2 1774   3.823  -0.069   0.567 -0.0764  0.3076  0.0777
  319CHL      H 1775   3.857   0.156   0.626  1.1238  0.4182  0.4349
  320CHL     CL 1776   4.400   1.639   0.334 -0.0977 -0.0851 -0.3766
  320CHL      C 1777   4.275   1.717   0.233  0.0557 -0.0549 -0.0876
  320CHL    CL1 1778   4.126   1.683   0.310 -0.0263  0.0187 -0.3238
  320CHL    CL2 1779   4.301   1.897   0.218  0.1974 -0.4213 -0.0967
  320CHL      H 1780   4.273   1.678   0.130 -2.7108 -0.5773  0.0921
  321CHL     CL 1781   0.446   4.111   3.171 -0.2579 -0.1425  0.0825
  321CHL      C 1782   0.465   4.278   3.114 -0.1449 -1.0374 -1.0848
  321CHL    CL1 1783   0.366   4.307   2.971 -0.1736 -0.2079 -0.1257
  321CHL    CL2 1784   0.426   4.391   3.256  0.2014  0.4608 -0.3126
  321CHL      H 1785   0.571   4.286   3.088  0.3456 -1.8738  0.5364
  322CHL     CL 1786   2.472   2.958   2.416  0.1501 -0.0791  0.1029
  322CHL      C 1787   2.604   2.846   2.375  0.0038 -0.0956 -0.3019
  322CHL    CL1 1788   2.551   2.695   2.298 -0.0279  0.4742  0.2531
  322CHL    CL2 1789   2.740   2.929   2.284  0.2606 -0.4054 -0.0688
  322CHL      H 1790   2.652   2.822   2.471  1.8728  0.9560 -0.9012
  323CHL     CL 1791   1.078   1.999   4.108 -0.0348  0.1029 -0.0517
  323CHL      C 1792   1.106   1.869   4.210  0.1491  0.3096 -0.5152
  323CHL    CL1 1793   1.257   1.895   4.295 -0.0825  0.1580 -0.1400
  323CHL    CL2 1794   0.964   1.838   4.335 -0.0474  0.2500 -0.2983
  323CHL      H 1795   1.113   1.782   4.144 -2.1302 -0.3083 -0.0196
  324CHL     CL 1796   3.108   1.032   3.294 -0.1117  0.2473 -0.0089
  324CHL      C 1797   3.072   1.190   3.211 -0.9850  0.2382  0.4617
  324CHL    CL1 1798   3.020   1.148   3.045 -0.0718  0.0784 -0.0656
  324CHL    CL2 1799   2.942   1.277   3.293  0.2617  0.0253 -0.2357
  324CHL      H 1800   3.165   1.247   3.203 -1.5273  1.4229  2.0645
  325CHL     CL 1801   2.041   2.833   3.614 -0.3404 -0.2617  0.2004
  325CHL      C 1802   1.866   2.794   3.588 -0.1808 -0.1163  0.6299
  325CHL    CL1 1803   1.854   2.675   3.457  0.2797 -0.0191 -0.4780
  325CHL    CL2 1804   1.783   2.727   3.734 -0.5347 -0.3237  0.1027
  325CHL      H 1805   1.812   2.887   3.565  0.5019  0.2933  0.6504
  326CHL     CL 1806   0.189   3.366   4.299 -0.0652 -0.4600  0.2500
  326CHL      C 1807   0.294   3.512   4.346  0.1734 -0.5785 -0.0640
  326CHL    CL1 1808   0.441   3.527   4.243  0.2165  0.3291  0.2160
  326CHL    CL2 1809   0.210   3.672   4.345 -0.2944 -0.3495 -0.0012
  326CHL      H 1810   0.332   3.492   4.447  0.2969 -0.8329 -0.1602
  327CHL     CL 1811   1.384   3.068   3.637 -0.8098 -0.3810  0.3664
  327CHL      C 1812   1.281   3.109   3.498 -1.1871 -0.3957  0.2652
  327CHL    CL1 1813   1.376   3.194   3.369 -0.2817 -0.5534  0.3892
  327CHL    CL2 1814   1.229   2.956   3.420 -0.2942 -0.1885  0.0568
  327CHL      H 1815   1.197   3.169   3.532  0.3090  0.4971  2.5638
  328CHL     CL 1816   2.066   2.073   3.574  0.1472  0.0830 -0.0767
  328CHL      C 1817   2.226   2.030   3.639  0.1656 -0.0651 -1.0930
  328CHL    CL1 1818   2.199   1.901   3.772 -0.0067 -0.0540  0.7980
  328CHL    CL2 1819   2.328   1.957   3.511 -0.0694 -0.2702 -0.3687
  328CHL      H 1820   2.270   2.127   3.667  0.5636 -0.5644  0.0552
  329CHL     CL 1821   3.149   2.189   2.107  0.0975 -0.2474 -0.1960
  329CHL      C 1822   3.078   2.259   2.259  0.4999  0.5848 -0.4091
  329CHL    CL1 1823   3.217   2.314   2.362  0.2473 -0.1338  0.2050
  329CHL    CL2 1824   2.988   2.398   2.216 -0.4126  0.2043 -0.2589
  329CHL      H 1825   3.012   2.185   2.306  0.7833  0.3260 -0.4127
  330CHL     CL 1826   2.937   4.091   0.093  0.1112  0.0225 -0.1305
  330CHL      C 1827   3.106   4.123   0.145 -0.1942 -0.3902  0.0322
  330CHL    CL1 1828   3.114   4.301   0.173  0.0689  0.1058 -0.0677
  330CHL    CL2 1829   3.144   4.031   0.300  0.0992 -0.0326 -0.1306
  330CHL      H 1830   3.159   4.097   0.053 -0.5507 -2.3280  0.3276
  331CHL     CL 1831   1.387   2.695   1.056  0.1158  0.1457  0.1079
  331CHL      C 1832   1.469   2.824   1.154 -0.0675 -0.6659  0.3083
  331CHL    CL1 1833   1.617   2.876   1.056 -0.0233  0.0274 -0.4357
  331CHL    CL2 1834   1.364   2.968   1.200  0.5350 -0.2314  0.1247
  331CHL      H 1835   1.504   2.780   1.249 -1.2380  0.2645  1.2028
  332CHL     CL 1836   3.893   3.622   4.034  0.3434  0.1731  0.1687
  332CHL      C 1837   3.868   3.725   3.886  0.3111  0.5368  0.1248
  332CHL    CL1 1838   3.738   3.638   3.791  0.5126  0.1288  0.1266
  332CHL    CL2 1839   3.814   3.894   3.932 -0.0595 -0.1035  0.2346
  332CHL      H 1840   3.962   3.738   3.830  0.6170 -0.4306  0.4035
  333CHL     CL 1841   2.627   1.101   2.828 -0.0251  0.1378  0.3154
  333CHL      C 1842   2.537   1.208   2.720  0.5972 -0.0579  0.3083
  333CHL    CL1 1843   2.554   1.149   2.551 -0.2235 -0.1594  0.1349
  333CHL    CL2 1844   2.365   1.237   2.755  0.4699  0.1284  0.2906
  333CHL      H 1845   2.578   1.310   2.723  0.9080 -0.1744  0.0595
  334CHL     CL 1846   0.012   0.800   4.131  0.4369  0.0842  0.4347
  334CHL      C 1847   0.147   0.863   4.234 -0.3980  0.0160  0.3172
  334CHL    CL1 1848   0.062   0.940   4.372 -0.4919  0.4473  0.5331
  334CHL    CL2 1849   0.242   0.725   4.291  0.2435  0.0280  0.0970
  334CHL      H 1850   0.214   0.934   4.184  0.5495 -1.6458 -0.8528
  335CHL     CL 1851   1.006   3.253   3.738 -0.2933  0.6754 -0.1485
  335CHL      C 1852   0.891   3.128   3.800 -0.5116  0.1327 -0.2903
  335CHL    CL1 1853   0.881   2.983   3.693  0.2988 -0.1483 -0.2728
  335CHL    CL2 1854   0.946   3.079   3.964 -0.0018  0.2261  0.0334
  335CHL      H 1855   0.793   3.175   3.803 -0.6169 -0.1203  0.7589
  336CHL     CL 1856   0.703   4.101   4.160 -0.1059  0.1461  0.2952
  336CHL      C 1857   0.565   4.061   4.049  0.9571 -0.4460 -0.8101
  336CHL    CL1 1858   0.545   3.881   4.037  0.1050 -0.1357 -0.1868
  336CHL    CL2 1859   0.407   4.142   4.092  0.6816  0.1012 -0.2212
  336CHL      H 1860   0.593   4.102   3.951 -1.4878  1.4672 -0.8264
  337CHL     CL 1861   2.764   2.221   3.920  0.1670  0.0444  0.2751
  337CHL      C 1862   2.601   2.167   3.958 -0.3563  0.1758  0.5518
  337CHL    CL1 1863   2.490   2.310   3.992  0.3854 -0.1996 -0.2497
  337CHL    CL2 1864   2.556   2.071   3.801  0.2654 -0.2369  0.0147
  337CHL      H 1865   2.606   2.102   4.046  0.9213  0.1015  0.4468
  338CHL     CL 1866   1.005   0.496   4.335  0.2324  0.2200  0.2400
  338CHL      C 1867   1.002   0.326   4.389 -0.1406 -0.2063 -0.3997
  338CHL    CL1 1868   0.885   0.229   4.297 -0.2270 -0.6051 -0.5546
  338CHL    CL2 1869   1.166   0.252   4.381 -0.0226 -0.2352 -0.4325
  338CHL      H 1870   0.966   0.323   4.492 -0.5065 -1.3917 -0.5482
  339CHL     CL 1871   3.104   1.323   1.005 -0.0967 -0.0453 -0.1539
  339CHL      C 1872   3.190   1.228   0.879  0.6382  0.6346  0.3892
  339CHL    CL1 1873   3.326   1.140   0.949  0.1049 -0.3450  0.7759
  339CHL    CL2 1874   3.073   1.108   0.804  0.1967 -0.1681 -0.1963
  339CHL      H 1875   3.218   1.297   0.799  0.6514 -0.5064 -0.6116
  340CHL     CL 1876   2.463   3.473   2.749  0.0280 -0.2820 -0.2669
  340CHL      C 1877   2.327   3.408   2.638 -0.1850 -0.6898  0.0236
  340CHL    CL1 1878   2.328   3.488   2.477 -0.0995  0.5857 -0.3142
  340CHL    CL2 1879   2.340   3.227   2.608  0.1568  0.0890  0.3504
  340CHL      H 1880   2.228   3.425   2.683  0.0086  1.0599 -0.1541
  341CHL     CL 1881   2.890   2.194   3.221 -0.0822 -0.1965  0.0595
  341CHL      C 1882   2.858   2.027   3.274 -0.6783  0.2148 -0.3874
  341CHL    CL1 1883   2.746   2.021   3.409 -0.0281 -0.1130  0.1061
  341CHL    CL2 1884   2.786   1.941   3.135 -0.1019 -0.2794 -0.2819
  341CHL      H 1885   2.952   1.978   3.302  0.1250  0.6421 -2.2030
  342CHL     CL 1886   1.616   2.487   2.648 -0.4885 -0.0922  0.5029
  342CHL      C 1887   1.748   2.503   2.528  0.5823  0.2274  0.2892
  342CHL    CL1 1888   1.865   2.617   2.597  0.4398 -0.0223  0.0496
  342CHL    CL2 1889   1.821   2.340   2.494 -0.2424  0.1338  0.1116
  342CHL      H 1890   1.710   2.552   2.438 -2.1349  2.9035  2.6677
  343CHL     CL 1891   2.161   0.835   3.907 -0.0184 -0.0411  0.1447
  343CHL      C 1892   2.046   0.975   3.922  0.3627 -0.3273  0.5387
  343CHL    CL1 1893   2.147   1.121   3.926  0.2277 -0.1801  0.1767
  343CHL    CL2 1894   1.945   0.971   3.779 -0.1629 -0.4187 -0.1264
  343CHL      H 1895   1.990   0.973   4.015 -2.0528 -0.3527 -0.8360
  344CHL     CL 1896   3.809   0.832   3.034  0.1558 -0.1513  0.0141
  344CHL      C 1897   3.778   1.009   3.032  0.1299  0.2276 -1.1507
  344CHL    CL1 1898   3.895   1.109   3.144 -0.0022 -0.0438  0.0418
  344CHL    CL2 1899   3.799   1.074   2.868  0.0997 -0.0065  0.1579
  344CHL      H 1900   3.677   1.031   3.068  0.8905  0.5890  0.8973
  345CHL     CL 1901   0.386   3.724   3.680 -0.1342 -0.0626 -0.2395
  345CHL      C 1902   0.447   3.844   3.562  0.4640 -0.4254  0.3875
  345CHL    CL1 1903   0.627   3.852   3.570 -0.6951 -0.2817  0.3778
  345CHL    CL2 1904   0.407   3.800   3.396  0.1220  0.2805  0.3703
  345CHL      H 1905   0.397   3.941   3.577  0.4017  0.1569 -2.9327
  346CHL     CL 1906   1.119   3.979   1.564  0.0877  0.2745 -0.1082
  346CHL      C 1907   1.184   4.057   1.416 -0.1955 -0.4320 -0.8154
  346CHL    CL1 1908   1.085   4.198   1.364 -0.2635  0.1865 -0.2267
  346CHL    CL2 1909   1.346   4.119   1.444 -0.0314  0.0558 -0.0198
  346CHL      H 1910   1.200   3.985   1.335 -0.3572  1.2935 -2.4429
  347CHL     CL 1911   1.754   3.464   0.237  0.2162 -0.0464 -0.0816
  347CHL      C 1912   1.926   3.401   0.243 -0.0257  0.3599 -0.0133
  347CHL    CL1 1913   2.035   3.541   0.310 -0.4510 -0.1382 -0.2436
  347CHL    CL2 1914   1.946   3.248   0.342 -0.5738 -0.4582 -0.1569
  347CHL      H 1915   1.963   3.378   0.143 -0.8258 -0.7926 -0.0532
  348CHL     CL 1916   3.666   0.816   2.561 -0.0767 -0.1098 -0.2045
  348CHL      C 1917   3.696   0.930   2.428 -0.3121 -0.2015 -0.2034
  348CHL    CL1 1918   3.756   1.090   2.501 -0.1032  0.0250  0.0423
  348CHL    CL2 1919   3.826   0.875   2.313 -0.1401 -0.2261 -0.5564
  348CHL      H 1920   3.603   0.954   2.375  0.3904  1.0526 -0.9300
  349CHL     CL 1921   1.861   3.747   4.263  0.2146  0.2931  0.0273
  349CHL      C 1922   1.738   3.664   4.168 -0.3541 -0.0003  0.0955
  349CHL    CL1 1923   1.654   3.556   4.279  0.1342 -0.0124 -0.0771
  349CHL    CL2 1924   1.619   3.785   4.102 -0.2772 -0.0415  0.2307
  349CHL      H 1925   1.785   3.597   4.095 -0.5253 -0.7155  0.6440
  350CHL     CL 1926   3.665   1.148   3.593  0.0730 -0.2095 -0.0996
  350CHL      C 1927   3.552   1.061   3.486  0.3252 -0.1164  0.2929
  350CHL    CL1 1928   3.606   0.885   3.458  0.1038 -0.4170  0.5019
  350CHL    CL2 1929   3.384   1.069   3.559  0.0325  0.3915  0.5957
  350CHL      H 1930   3.546   1.113   3.390  0.8590  0.2612  0.4565
  351CHL     CL 1931   4.189   1.833   3.206 -0.1269  0.1892  0.0355
  351CHL      C 1932   4.303   1.708   3.275 -0.2030  0.1901  0.2737
  351CHL    CL1 1933   4.301   1.709   3.451 -0.6305  0.3842 -0.1847
  351CHL    CL2 1934   4.227   1.543   3.223 -0.3384  0.4689 -0.0974
  351CHL      H 1935   4.403   1.720   3.232 -0.0714  0.6967  0.7314
  352CHL     CL 1936   3.031   1.951   0.805 -0.3853 -0.5972 -0.2278
  352CHL      C 1937   3.047   2.128   0.800 -0.0250 -0.1354 -0.2107
  352CHL    CL1 1938   2.881   2.195   0.771  0.0361 -0.3356 -0.3316
  352CHL    CL2 1939   3.113   2.187   0.953 -0.1882  0.2058 -0.3657
  352CHL      H 1940   3.116   2.162   0.722  1.7501 -0.8031  1.0187
  353CHL     CL 1941   0.507   1.315   2.302 -0.1013  0.2401 -0.0004
  353CHL      C 1942   0.653   1.379   2.224 -0.6221  0.3495  0.0984
  353CHL    CL1 1943   0.799   1.263   2.243  0.3252  0.1639  0.0906
  353CHL    CL2 1944   0.627   1.409   2.050  0.0093 -0.3019  0.0992
  353CHL      H 1945   0.679   1.476   2.269  0.3355 -0.1770  0.7301
  354CHL     CL 1946   2.923   1.240   1.641 -0.3141  0.0339 -0.5803
  354CHL      C 1947   3.086   1.262   1.729 -0.4776  0.4054 -0.4437
  354CHL    CL1 1948   3.175   1.405   1.675 -0.0920  0.5437  0.5267
  354CHL    CL2 1949   3.048   1.272   1.912  0.0499 -0.2497 -0.1373
  354CHL      H 1950   3.148   1.173   1.712  2.0223  2.3518 -2.1505
  355CHL     CL 1951   2.239   1.747   4.260 -0.2742 -0.4619  0.6806
  355CHL      C 1952   2.357   1.891   4.271  0.1129 -0.3027  0.5376
  355CHL    CL1 1953   2.332   2.005   4.131  0.0912  0.6535  0.1892
  355CHL    CL2 1954   2.357   1.993   4.424  0.1522 -0.3769  0.0385
  355CHL      H 1955   2.458   1.849   4.264  0.4532  0.4259  1.0127
  356CHL     CL 1956   2.265   2.731   0.737  0.0125 -0.1372 -0.3050
  356CHL      C 1957   2.209   2.770   0.564 -0.2565 -0.5689 -0.4472
  356CHL    CL1 1958   2.340   2.833   0.470 -0.5973  0.3092  0.1354
  356CHL    CL2 1959   2.154   2.610   0.497  0.0111  0.6071 -0.0045
  356CHL      H 1960   2.123   2.837   0.562  1.2662  1.4704 -3.2219
  357CHL     CL 1961   3.622   2.116   2.482  0.1689  0.2765 -0.0622
  357CHL      C 1962   3.730   2.248   2.533 -0.6191 -0.3689  0.4089
  357CHL    CL1 1963   3.670   2.403   2.473  0.3070  0.0252 -0.3045
  357CHL    CL2 1964   3.755   2.245   2.709  0.0005 -0.0077  0.1045
  357CHL      H 1965   3.828   2.231   2.489 -0.0210  1.0194  1.1528
  358CHL     CL 1966   1.519   2.062   3.341  0.3534  0.0843 -0.3750
  358CHL      C 1967   1.619   1.928   3.386  0.6664  0.4165 -0.1896
  358CHL    CL1 1968   1.646   1.936   3.562 -0.3361  0.0270 -0.0161
  358CHL    CL2 1969   1.544   1.783   3.338 -0.2261 -0.0060  0.0956
  358CHL      H 1970   1.712   1.932   3.329  1.3095  1.0805  0.8747
  359CHL     CL 1971   3.630   2.893   3.240  0.2166  0.1340 -0.5430
  359CHL      C 1972   3.808   2.852   3.233  0.0176  0.6002 -0.0970
  359CHL    CL1 1973   3.879   2.957   3.097 -0.1528 -0.0466 -0.2717
  359CHL    CL2 1974   3.894   2.877   3.389 -0.1396  0.0604 -0.1071
  359CHL      H 1975   3.819   2.748   3.203  0.8947  0.4550  0.6658
  360CHL     CL 1976   2.644   3.794   2.237 -0.2553  0.2739 -0.1550
  360CHL      C 1977   2.723   3.751   2.082  0.5933 -0.1466  0.1219
  360CHL    CL1 1978   2.737   3.887   1.975  0.2022  0.1481  0.1053
  360CHL    CL2 1979   2.892   3.689   2.103  0.4174  0.4927  0.0389
  360CHL      H 1980   2.661   3.676   2.033 -0.1441 -0.7055  1.8186
  361CHL     CL 1981   0.649   1.967   2.659 -0.0653  0.4277  0.1350
  361CHL      C 1982   0.634   2.033   2.826  0.9142  0.3154  0.1042
  361CHL    CL1 1983   0.464   2.038   2.886  0.2123  0.0326 -0.3493
  361CHL    CL2 1984   0.719   1.928   2.937 -0.1535  0.3131 -0.0759
  361CHL      H 1985   0.672   2.136   2.824  0.3422  0.5212 -0.7000
  362CHL     CL 1986   3.892   0.469   0.360 -0.0787 -0.0306  0.6568
  362CHL      C 1987   3.807   0.503   0.526  0.0268 -0.1706  0.1149
  362CHL    CL1 1988   3.670   0.400   0.518 -0.0055  0.0077 -0.0617
  362CHL    CL2 1989   3.912   0.470   0.672  0.1378 -0.0505  0.1176
  362CHL      H 1990   3.783   0.610   0.519  1.0012 -0.0225 -1.2693
  363CHL     CL 1991   1.173   3.351   2.648 -0.1841 -0.1086  0.2135
  363CHL      C 1992   1.173   3.418   2.813 -0.1569 -0.5548 -0.2188
  363CHL    CL1 1993   1.340   3.477   2.856  0.4145  0.0957  0.3925
  363CHL    CL2 1994   1.063   3.552   2.835  0.1945  0.0861  0.0929
  363CHL      H 1995   1.134   3.344   2.884 -2.7375  0.0783 -0.8907
  364CHL     CL 1996   2.419   0.556   3.703  0.0611 -0.2596 -0.5164
  364CHL      C 1997   2.507   0.586   3.850 -0.1801 -0.1095 -0.3194
  364CHL    CL1 1998   2.666   0.508   3.850 -0.1851 -0.0992  0.2831
  364CHL    CL2 1999   2.523   0.764   3.859 -0.3506  0.0411 -0.0192
  364CHL      H 2000   2.448   0.550   3.935 -0.6701  1.1036 -0.1236
  365CHL     CL 2001   2.857   1.531   3.745  0.2218  0.4653 -0.5140
  365CHL      C 2002   2.993   1.440   3.702 -0.1870 -0.6286  0.0333
  365CHL    CL1 2003   3.108   1.453   3.838 -0.4227  0.1006  0.0466
  365CHL    CL2 2004   2.947   1.263   3.693  0.1853 -0.3346  0.1202
  365CHL      H 2005   3.034   1.479   3.608  1.7814 -1.9759  0.2842
  366CHL     CL 2006   1.872   3.212   3.113  0.4386  0.0522  0.3184
  366CHL      C 2007   1.882   3.056   3.208  0.0983 -0.3443  0.7076
  366CHL    CL1 2008   1.915   3.102   3.376  0.0063  0.0653  0.4595
  366CHL    CL2 2009   1.722   2.978   3.199  0.3909 -0.1593 -0.2258
  366CHL      H 2010   1.954   2.982   3.170  0.2046 -1.4301  2.8674
  367CHL     CL 2011   4.168   3.563   2.086  0.1162  0.0150 -0.2971
  367CHL      C 2012   4.247   3.679   1.973  0.3981 -0.0985 -0.0273
  367CHL    CL1 2013   4.120   3.714   1.840 -0.0665 -0.3378 -0.1353
  367CHL    CL2 2014   4.288   3.835   2.053 -0.0977 -0.0141 -0.3058
  367CHL      H 2015   4.341   3.641   1.932 -0.1426  0.5282 -1.9501
  368CHL     CL 2016   0.229   2.836   1.961 -0.6960  0.0976  0.0577
  368CHL      C 2017   0.134   2.799   1.822  0.5369  0.0175 -0.0395
  368CHL    CL1 2018   0.135   2.624   1.790  0.3015  0.4659  0.1660
  368CHL    CL2 2019  -0.027   2.879   1.852 -0.0132  0.0184 -0.2578
  368CHL      H 2020   0.177   2.846   1.733  1.4563  2.0563  1.4126
  369CHL     CL 2021   1.862   0.243   3.333  0.2083  0.2323  0.0410
  369CHL      C 2022   1.833   0.103   3.207 -0.1586  0.8349  0.0381
  369CHL    CL1 2023   1.661   0.049   3.227  0.0386  0.3617  0.2443
  369CHL    CL2 2024   1.863   0.165   3.036 -0.3264  0.1396  0.0188
  369CHL      H 2025   1.904   0.022   3.229  0.9687  1.1281 -2.1906
  370CHL     CL 2026   2.669   2.272   0.059 -0.4545  0.1215 -0.1142
  370CHL      C 2027   2.795   2.184   0.152 -0.1510 -1.1037  0.1715
  370CHL    CL1 2028   2.931   2.131   0.049  0.0679  0.5480  0.4285
  370CHL    CL2 2029   2.870   2.286   0.285  0.1054  0.4972  0.0475
  370CHL      H 2030   2.738   2.097   0.185 -1.4466 -0.6635 -0.8371
  371CHL     CL 2031   0.298   3.825   2.968 -0.3462  0.1308 -0.1127
  371CHL      C 2032   0.227   3.963   2.867  0.6028  0.2061 -0.6799
  371CHL    CL1 2033   0.283   3.934   2.703  0.7236  0.0229 -0.2199
  371CHL    CL2 2034   0.052   3.938   2.880 -0.1830  0.0635  0.1760
  371CHL      H 2035   0.261   4.059   2.907  2.9077 -0.5156 -0.7356
  372CHL     CL 2036   0.870   2.912   2.381 -0.2457 -0.4043 -0.3406
  372CHL      C 2037   0.985   2.867   2.516 -0.4372  0.2304 -0.2693
  372CHL    CL1 2038   0.964   2.685   2.526 -0.1370  0.2312 -0.2575
  372CHL    CL2 2039   1.162   2.901   2.470 -0.3553  0.2479  0.4937
  372CHL      H 2040   0.955   2.900   2.616 -1.3605 -0.5061 -0.2914
  373CHL     CL 2041   3.266   1.292   2.226 -0.0126  0.0422  0.0983
  373CHL      C 2042   3.190   1.156   2.336  0.1359 -0.8285  1.4179
  373CHL    CL1 2043   3.049   1.075   2.251 -0.0697  0.4636  0.2137
  373CHL    CL2 2044   3.318   1.041   2.374 -0.0829  0.2019  0.1399
  373CHL      H 2045   3.147   1.203   2.425 -0.6809 -0.3438  0.7867
  374CHL     CL 2046   1.512   0.072   1.029 -0.2637  0.2179 -0.3854
  374CHL      C 2047   1.503  -0.053   1.167 -0.1002  0.2945  0.4889
  374CHL    CL1 2048   1.419  -0.207   1.112 -0.1474 -0.2649  0.0808
  374CHL    CL2 2049   1.665  -0.086   1.256  0.0602 -0.1272 -0.2198
  374CHL      H 2050   1.439  -0.011   1.245  1.9713  3.6368  0.6130
  375CHL     CL 2051   4.249   3.787   3.402 -0.0353 -0.3083 -0.1672
  375CHL      C 2052   4.118   3.732   3.284 -0.5296 -0.6103  0.1580
  375CHL    CL1 2053   4.182   3.619   3.165 -0.1515  0.1955  0.1733
  375CHL    CL2 2054   3.989   3.659   3.385  0.2755 -0.4170  0.2945
  375CHL      H 2055   4.082   3.818   3.226 -0.4430  0.7562  2.0628
  376CHL     CL 2056   3.231   4.350   4.021 -0.2717  0.2334  0.6136
  376CHL      C 2057   3.400   4.300   3.965  0.5805 -0.3425  0.0093
  376CHL    CL1 2058   3.496   4.458   3.973 -0.4132  0.2612 -0.2048
  376CHL    CL2 2059   3.479   4.176   4.068  0.1031  0.0167  0.0086
  376CHL      H 2060   3.400   4.266   3.861  1.6921  1.3709 -0.5939
  377CHL     CL 2061   1.841   3.719   1.135 -0.4102  0.2247  0.0214
  377CHL      C 2062   1.866   3.894   1.068 -0.4035  0.3900 -0.3332
  377CHL    CL1 2063   1.978   3.906   0.932 -0.2044  0.0602 -0.0303
  377CHL    CL2 2064   1.711   3.980   1.022 -0.3788  0.3371 -0.0047
  377CHL      H 2065   1.910   3.961   1.143  1.5011  0.8448 -1.7641
  378CHL     CL 2066   4.333   1.823   3.926  0.0526 -0.2666 -0.0675
  378CHL      C 2067   4.196   1.920   3.891  0.4187 -0.4040 -0.1717
  378CHL    CL1 2068   4.202   2.078   3.982 -0.4859  0.4246 -0.1966
  378CHL    CL2 2069   4.181   1.949   3.724 -0.1309 -0.0491 -0.0997
  378CHL      H 2070   4.108   1.863   3.922 -0.0523 -1.2046 -2.7169
  379CHL     CL 2071   0.426   1.080   0.490 -0.0125  0.3121  0.1100
  379CHL      C 2072   0.461   0.960   0.361  0.0943 -0.4166  0.9363
  379CHL    CL1 2073   0.311   0.945   0.253  0.2117  0.0960  0.4853
  379CHL    CL2 2074   0.608   1.013   0.277 -0.0808 -0.2355  0.3137
  379CHL      H 2075   0.482   0.862   0.405  1.9647 -0.8740 -0.8270
  380CHL     CL 2076   0.226   1.215   4.167 -0.0123 -0.3327  0.3007
  380CHL      C 2077   0.395   1.241   4.115 -0.1367  0.2320  0.2908
  380CHL    CL1 2078   0.400   1.366   3.987 -0.2295 -0.0045  0.3236
  380CHL    CL2 2079   0.493   1.302   4.253  0.2659  0.3109  0.2600
  380CHL      H 2080   0.443   1.147   4.086 -1.6441  0.2674 -2.7157
  381CHL     CL 2081   2.409   3.480   0.178 -0.2239  0.2841 -0.1324
  381CHL      C 2082   2.385   3.515   0.350 -0.5675  0.2065  0.4310
  381CHL    CL1 2083   2.314   3.365   0.436 -0.2802 -0.1978 -0.2236
  381CHL    CL2 2084   2.534   3.580   0.416  0.0189 -0.0716  0.2074
  381CHL      H 2085   2.308   3.591   0.364 -1.0793 -0.3402  0.6614
  382CHL     CL 2086   3.424   4.200   1.993 -0.0635  0.0474 -0.3522
  382CHL      C 2087   3.400   4.200   2.168  0.1857  0.0065 -0.5712
  382CHL    CL1 2088   3.553   4.141   2.228  0.0286  0.3388 -0.0687
  382CHL    CL2 2089   3.365   4.380   2.218  0.5024 -0.0581 -0.5818
  382CHL      H 2090   3.324   4.125   2.195  1.4546 -0.1212  3.3529
  383CHL     CL 2091   0.069   0.502   2.800  0.1609  0.0947  0.5493
  383CHL      C 2092   0.123   0.571   2.648 -0.2369 -0.2479  0.2533
  383CHL    CL1 2093   0.004   0.698   2.598 -0.2871 -0.1508 -0.1514
  383CHL    CL2 2094   0.286   0.649   2.663  0.4121  0.3313 -0.0017
  383CHL      H 2095   0.137   0.498   2.568  1.6284  2.5078 -2.1822
  384CHL     CL 2096   0.007   2.887   4.247  0.3151  0.2366 -0.2907
  384CHL      C 2097   0.026   3.011   4.120  0.3920  0.1953 -0.0986
  384CHL    CL1 2098   0.059   2.923   3.972 -0.1090 -0.2444  0.0620
  384CHL    CL2 2099  -0.127   3.102   4.099 -0.1447 -0.3348 -0.0653
  384CHL      H 2100   0.110   3.078   4.144 -0.5412  1.0978  0.7186
  385CHL     CL 2101   2.486   2.299   3.396  0.3304  0.1174  0.0617
  385CHL      C 2102   2.544   2.321   3.552  0.4106 -1.0349 -0.1585
  385CHL    CL1 2103   2.696   2.417   3.535  0.0457 -0.3584 -0.4214
  385CHL    CL2 2104   2.437   2.399   3.662 -0.2529  0.1133  0.4241
  385CHL      H 2105   2.569   2.222   3.592  0.8936 -0.4847  0.9306
  386CHL     CL 2106   3.486   3.492   2.636 -0.3981 -0.0636 -0.4161
  386CHL      C 2107   3.535   3.649   2.695 -0.2610 -0.4047 -0.2708
  386CHL    CL1 2108   3.596   3.633   2.864 -0.0248  0.3276  0.1528
  386CHL    CL2 2109   3.667   3.715   2.585  0.2962 -0.1774  0.0938
  386CHL      H 2110   3.451   3.718   2.690  1.2347  1.4180 -1.6326
  387CHL     CL 2111   0.267   0.469   1.414 -0.0624 -0.0981  0.1120
  387CHL      C 2112   0.395   0.341   1.368  0.3050  0.2726  0.8578
  387CHL    CL1 2113   0.487   0.376   1.208 -0.5604  0.1919 -0.2671
  387CHL    CL2 2114   0.512   0.331   1.500 -0.1706  0.2259  0.0791
  387CHL      H 2115   0.357   0.239   1.359 -0.8357  0.7130  0.5792
  388CHL     CL 2116   2.096   1.126   3.053 -0.2091 -0.5006 -0.2207
  388CHL      C 2117   1.938   1.053   3.006 -0.0722  0.7538 -0.3594
  388CHL    CL1 2118   1.948   0.877   3.018 -0.1121  0.4573  0.0673
  388CHL    CL2 2119   1.807   1.126   3.104 -0.1493 -0.2935  0.0970
  388CHL      H 2120   1.911   1.079   2.903 -0.5797  0.8585 -0.2004
  389CHL     CL 2121   3.828   0.054   3.868 -0.0837 -0.3857 -0.0187
  389CHL      C 2122   3.906   0.038   4.023 -0.7419  0.4132 -0.5410
  389CHL    CL1 2123   3.874  -0.127   4.089  0.2407 -0.0830  0.2130
  389CHL    CL2 2124   4.078   0.046   3.995  0.0185 -0.1094  0.3151
  389CHL      H 2125   3.872   0.117   4.091  0.8992 -0.7329  1.7855
  390CHL     CL 2126   1.605   0.513   2.012 -0.0384  0.2238 -0.2560
  390CHL      C 2127   1.673   0.680   2.020  0.5766 -0.1569  0.4337
  390CHL    CL1 2128   1.582   0.799   1.920  0.0355 -0.3089 -0.3200
  390CHL    CL2 2129   1.689   0.723   2.191 -0.1245 -0.0403  0.0438
  390CHL      H 2130   1.778   0.693   1.991  0.2948  4.2261  0.7065
  391CHL     CL 2131   2.774   4.285   2.016 -0.1710  0.3509 -0.0345
  391CHL      C 2132   2.902   4.277   2.146 -0.0733 -0.2814 -0.0892
  391CHL    CL1 2133   2.828   4.231   2.302 -0.3871  0.2551 -0.1789
  391CHL    CL2 2134   3.016   4.141   2.096 -0.1356 -0.0614  0.1784
  391CHL      H 2135   2.951   4.373   2.165 -1.6590  0.6027 -0.3216
  392CHL     CL 2136   3.298   3.661   1.075  0.1959  0.4205 -0.2500
  392CHL      C 2137   3.279   3.807   1.184  0.0260  1.0756 -0.0722
  392CHL    CL1 2138   3.242   3.949   1.087  0.2037  0.4151  0.0005
  392CHL    CL2 2139   3.145   3.778   1.300  0.3715  0.0107  0.3474
  392CHL      H 2140   3.374   3.833   1.231 -0.7317 -0.1554  2.3156
  393CHL     CL 2141   1.956   3.454   2.448  0.1896  0.3691  0.5432
  393CHL      C 2142   1.778   3.416   2.453  0.0442  0.3890 -0.6783
  393CHL    CL1 2143   1.674   3.563   2.471  0.0236 -0.2706 -0.2788
  393CHL    CL2 2144   1.724   3.323   2.303  0.0744  0.4249 -0.0197
  393CHL      H 2145   1.763   3.356   2.544  2.1785  2.1097  0.8920
  394CHL     CL 2146   3.796   0.532   1.743 -0.1137 -0.0040  0.2735
  394CHL      C 2147   3.617   0.563   1.717  0.5149 -0.0293  0.6391
  394CHL    CL1 2148   3.594   0.718   1.632 -0.5581 -0.0813 -0.1081
  394CHL    CL2 2149   3.556   0.421   1.621 -0.2935 -0.0290 -0.0729
  394CHL      H 2150   3.565   0.565   1.813  0.2946 -1.6550  0.5939
  395CHL     CL 2151   4.176   3.447   1.342  0.0309 -0.2578  0.3443
  395CHL      C 2152   4.223   3.325   1.216 -0.3893 -0.1177 -0.4622
  395CHL    CL1 2153   4.277   3.402   1.068 -0.3758  0.3157  0.3274
  395CHL    CL2 2154   4.350   3.222   1.291  0.1572  0.0485 -0.0967
  395CHL      H 2155   4.139   3.257   1.198 -0.3329 -0.1234 -0.7028
  396CHL     CL 2156   3.506   3.382   1.562  0.1274 -0.0672 -0.1017
  396CHL      C 2157   3.376   3.477   1.472  0.6603 -0.1056  0.4847
  396CHL    CL1 2158   3.421   3.642   1.466 -0.4001 -0.2869  0.0121
  396CHL    CL2 2159   3.374   3.398   1.309  0.2992 -0.5959 -0.0917
  396CHL      H 2160   3.279   3.468   1.523  0.4152  1.6666  0.3729
  397CHL     CL 2161   1.504   4.101   2.811  0.1980 -0.0887 -0.0439
  397CHL      C 2162   1.353   4.041   2.896 -0.2173 -0.5833  0.1031
  397CHL    CL1 2163   1.291   3.887   2.829  0.1534  0.2910  0.1027
  397CHL    CL2 2164   1.387   4.030   3.068  0.0079 -0.6521 -0.0848
  397CHL      H 2165   1.272   4.111   2.878  0.8327  1.2293  1.9427
  398CHL     CL 2166   0.688   3.532   0.304 -0.2179  0.0262 -0.2337
  398CHL      C 2167   0.786   3.582   0.454  0.6092 -0.3986  0.1845
  398CHL    CL1 2168   0.760   3.487   0.594 -0.1944  0.1270 -0.5632
  398CHL    CL2 2169   0.959   3.573   0.416  0.0895 -0.1537  0.0226
  398CHL      H 2170   0.756   3.685   0.474  2.6972  0.7589 -2.2054
  399CHL     CL 2171   0.345   0.125   2.022  0.6925 -0.1354 -0.3427
  399CHL      C 2172   0.329   0.184   1.854 -0.3019  0.6170  0.3712
  399CHL    CL1 2173   0.220   0.330   1.854  0.2955  0.2767 -0.0954
  399CHL    CL2 2174   0.487   0.232   1.810  0.5981  0.2517  0.0437
  399CHL      H 2175   0.295   0.112   1.778  4.3369  0.1786 -1.6049
  400CHL     CL 2176   2.936   2.826   1.506  0.2115  0.5360 -0.4824
  400CHL      C 2177   2.824   2.703   1.447 -0.4525 -0.2044  0.2634
  400CHL    CL1 2178   2.719   2.780   1.323  0.6745  0.2501 -0.0581
  400CHL    CL2 2179   2.930   2.591   1.358 -0.1022  0.0069  0.0508
  400CHL      H 2180   2.772   2.649   1.527 -1.3221  0.2483  0.0202
  401CHL     CL 2181   3.952   0.370   3.220 -0.2753 -0.0843  0.4299
  401CHL      C 2182   3.802   0.462   3.170  0.2928  0.3459 -0.0594
  401CHL    CL1 2183   3.749   0.416   3.011 -0.4995 -0.1465  0.2802
  401CHL    CL2 2184   3.674   0.411   3.291  0.1214 -0.3029 -0.2472
  401CHL      H 2185   3.820   0.569   3.182  1.3516 -0.0674  2.8862
  402CHL     CL 2186   2.210   2.643   2.598 -0.2499  0.0021  0.1324
  402CHL      C 2187   2.332   2.641   2.728  1.2011 -0.0262  0.2935
  402CHL    CL1 2188   2.315   2.792   2.823 -0.5350 -0.7107  0.3236
  402CHL    CL2 2189   2.303   2.497   2.840  0.0746 -0.0156 -0.1970
  402CHL      H 2190   2.433   2.632   2.686  0.2785 -1.7015 -1.7372
  403CHL     CL 2191   4.308   3.472   1.690  0.2428 -0.0981  0.0112
  403CHL      C 2192   4.330   3.294   1.640  0.5275 -0.3511  0.5387
  403CHL    CL1 2193   4.400   3.222   1.781  0.2030  0.0193 -0.0017
  403CHL    CL2 2194   4.170   3.216   1.605 -0.5034  0.2250 -0.1575
  403CHL      H 2195   4.395   3.289   1.553 -0.1754 -0.7957  0.0361
  404CHL     CL 2196   1.196   0.260   1.608 -0.0707 -0.0510 -0.0859
  404CHL      C 2197   1.224   0.159   1.467 -0.0983  0.3253 -0.4964
  404CHL    CL1 2198   1.178   0.242   1.319 -0.0385 -0.2655 -0.6415
  404CHL    CL2 2199   1.395   0.099   1.463  0.0091  0.2045 -0.1614
  404CHL      H 2200   1.147   0.082   1.480 -0.7557  0.8422 -1.2789
  405CHL     CL 2201   3.891   1.961   1.860 -0.0489  0.2613  0.0980
  405CHL      C 2202   3.866   1.782   1.837  0.1367 -0.8408 -0.5990
  405CHL    CL1 2203   3.715   1.730   1.928  0.3386 -0.0901  0.2667
  405CHL    CL2 2204   3.864   1.736   1.665 -0.1506 -0.4603 -0.3682
  405CHL      H 2205   3.948   1.725   1.882 -0.1797 -0.4721  0.4770
  406CHL     CL 2206   3.182   1.871   1.435  0.0372  0.0533  0.0948
  406CHL      C 2207   3.295   1.745   1.351 -0.5127 -0.0741 -0.0596
  406CHL    CL1 2208   3.207   1.601   1.289  0.0726 -0.2981  0.0429
  406CHL    CL2 2209   3.386   1.824   1.210  0.3816 -0.3705 -0.1885
  406CHL      H 2210   3.375   1.713   1.419  2.0345 -0.1540 -2.8801
  407CHL     CL 2211   2.265   2.927   4.046  0.3796  0.0500 -0.0795
  407CHL      C 2212   2.161   2.792   3.994 -0.4696  0.3765 -0.3555
  407CHL    CL1 2213   2.254   2.637   3.963  0.0417 -0.0107  0.6085
  407CHL    CL2 2214   2.023   2.776   4.101  0.2863  0.5172  0.4009
  407CHL      H 2215   2.114   2.817   3.898 -1.5763 -1.6734 -0.4041
  408CHL     CL 2216   3.897   1.767   3.589  0.4318 -0.1479  0.6235
  408CHL      C 2217   3.916   1.609   3.660  0.0789 -0.0859  0.1333
  408CHL    CL1 2218   4.088   1.566   3.661  0.0881  0.0245 -0.0959
  408CHL    CL2 2219   3.863   1.608   3.830  0.0020  0.0141  0.3429
  408CHL      H 2220   3.857   1.541   3.598 -1.7857  0.6365  1.0381
  409CHL     CL 2221   0.598   0.034   4.129 -0.3313  0.0952 -0.5699
  409CHL      C 2222   0.476   0.153   4.069  0.1371  0.2177  0.2640
  409CHL    CL1 2223   0.383   0.069   3.946  0.1539 -0.1216 -0.1997
  409CHL    CL2 2224   0.361   0.189   4.200  0.4833  0.0180  0.0219
  409CHL      H 2225   0.519   0.244   4.027  3.3270 -2.7507 -3.7852
  410CHL     CL 2226   0.925   2.935   0.845  0.2619 -0.0211  0.2267
  410CHL      C 2227   0.913   2.799   0.738 -0.3861  0.3882 -0.4928
  410CHL    CL1 2228   1.038   2.822   0.614  0.4335  0.3054  0.3880
  410CHL    CL2 2229   0.936   2.650   0.840  0.2658 -0.3406 -0.0501
  410CHL      H 2230   0.815   2.798   0.688 -1.1926 -0.5197  1.0282
  411CHL     CL 2231   2.610   0.351   1.714 -0.3776 -0.3740 -0.2995
  411CHL      C 2232   2.687   0.338   1.880  0.1902  0.2710 -0.3575
  411CHL    CL1 2233   2.647   0.186   1.958 -0.4577 -0.2414  0.2123
  411CHL    CL2 2234   2.867   0.366   1.870  0.0739 -0.1060 -0.5062
  411CHL      H 2235   2.643   0.415   1.944 -2.4480 -1.2050 -0.2393
  412CHL     CL 2236   0.061   3.943   0.120  0.0521 -0.0325 -0.3494
  412CHL      C 2237   0.059   3.953   0.296 -0.0089 -0.0852 -0.4321
  412CHL    CL1 2238   0.025   3.791   0.366  0.4378 -0.4627 -0.3261
  412CHL    CL2 2239   0.216   4.030   0.349 -0.2694  0.2040 -0.1128
  412CHL      H 2240  -0.020   4.022   0.326 -0.9872 -2.3715  2.7952
  413CHL     CL 2241   2.728   2.620   3.257 -0.3668  0.1578 -0.1735
  413CHL      C 2242   2.640   2.582   3.108 -0.0696 -0.9439 -0.6001
  413CHL    CL1 2243   2.464   2.620   3.134  0.4726  0.0936  0.2841
  413CHL    CL2 2244   2.707   2.676   2.969  0.0540 -0.2012 -0.1094
  413CHL      H 2245   2.659   2.474   3.105  1.3705 -0.8186  1.5196
  414CHL     CL 2246   3.077   2.676   2.861  0.0494  0.4158 -0.7896
  414CHL      C 2247   3.072   2.570   3.007  0.0470 -0.5602  0.1994
  414CHL    CL1 2248   3.093   2.395   2.971 -0.5244 -0.1201  0.2062
  414CHL    CL2 2249   3.202   2.609   3.126 -0.2090 -0.3847  0.0886
  414CHL      H 2250   2.974   2.596   3.048  0.3674 -1.3463  1.5223
  415CHL     CL 2251   1.946   1.987   4.117  0.0698  0.2776 -0.3665
  415CHL      C 2252   1.826   2.039   4.236  0.0424 -0.4713  0.3577
  415CHL    CL1 2253   1.770   1.902   4.337  0.5846 -0.2117 -0.0894
  415CHL    CL2 2254   1.900   2.154   4.356  0.0607 -0.0173  0.3695
  415CHL      H 2255   1.734   2.082   4.193 -0.7253 -1.9946  0.4073
  416CHL     CL 2256   0.532   3.865   0.728 -0.5062 -0.0994 -0.2893
  416CHL      C 2257   0.462   3.926   0.882  0.4837 -0.0309 -0.2607
  416CHL    CL1 2258   0.469   3.800   1.015 -0.1996 -0.0103 -0.1059
  416CHL    CL2 2259   0.567   4.058   0.937 -0.0173 -0.2995 -0.1663
  416CHL      H 2260   0.359   3.953   0.858  0.5360  0.8997  0.5275
  417CHL     CL 2261   3.019   3.247   0.675 -0.0701  0.1822  0.2208
  417CHL      C 2262   3.143   3.163   0.575 -0.6222 -0.7036  0.4910
  417CHL    CL1 2263   3.275   3.100   0.678 -0.2764 -0.1851  0.4240
  417CHL    CL2 2264   3.065   3.033   0.488 -0.2259  0.0174 -0.3114
  417CHL      H 2265   3.178   3.232   0.497  1.6390 -0.9983  1.1846
  418CHL     CL 2266   4.080   3.521   3.707  0.2178 -0.4066 -0.0270
  418CHL      C 2267   4.089   3.361   3.791 -0.1066 -0.6466 -0.0335
  418CHL    CL1 2268   4.014   3.238   3.697 -0.3236 -0.1804  0.3003
  418CHL    CL2 2269   4.266   3.324   3.837  0.5174 -0.0436 -0.1479
  418CHL      H 2270   4.032   3.374   3.883 -1.5510 -1.2493 -0.8194
  419CHL     CL 2271   0.336   1.011   3.720 -0.5451 -0.0141  0.0625
  419CHL      C 2272   0.272   0.844   3.706  0.4518  0.3949 -0.5726
  419CHL    CL1 2273   0.374   0.727   3.799  0.2970  0.0278  0.1298
  419CHL    CL2 2274   0.111   0.844   3.792  0.1346 -0.1641 -0.2665
  419CHL      H 2275   0.262   0.809   3.602 -0.3095  0.2260 -0.4503
  420CHL     CL 2276   2.253   3.113   2.047  0.1352  0.1407  0.1352
  420CHL      C 2277   2.244   3.191   2.203 -0.0120 -0.6136 -0.2207
  420CHL    CL1 2278   2.180   3.360   2.177 -0.1184 -0.5176  0.2118
  420CHL    CL2 2279   2.121   3.117   2.303 -0.0549  0.2292 -0.0748
  420CHL      H 2280   2.339   3.186   2.257  0.1327 -1.3627 -0.5282
  421CHL     CL 2281   0.155   3.339   2.532  0.1258  0.0913 -0.5321
  421CHL      C 2282   0.214   3.469   2.428  0.3774 -0.8420  0.9800
  421CHL    CL1 2283   0.380   3.433   2.375 -0.0762 -0.0577  0.3781
  421CHL    CL2 2284   0.109   3.496   2.291 -0.1961 -0.1184  0.1049
  421CHL      H 2285   0.214   3.563   2.485 -0.1756  0.6601 -1.3517
  422CHL     CL 2286   1.139   1.022   1.378 -0.0855 -0.0163 -0.4359
  422CHL      C 2287   1.102   1.187   1.439  0.2338 -1.0369 -0.0904
  422CHL    CL1 2288   1.122   1.194   1.609  0.0985  0.0375  0.0082
  422CHL    CL2 2289   1.214   1.299   1.357  0.6762 -0.4973  0.7417
  422CHL      H 2290   0.999   1.220   1.420  0.3551 -0.5850  0.0110
  423CHL     CL 2291   1.192   4.398   2.861 -0.1889  0.1193  0.4034
  423CHL      C 2292   1.183   4.391   3.043 -0.2157  0.5134 -0.0083
  423CHL    CL1 2293   1.091   4.533   3.104  0.5549 -0.2028 -0.0053
  423CHL    CL2 2294   1.103   4.238   3.087  0.1338  0.2139 -0.0969
  423CHL      H 2295   1.280   4.388   3.094  1.1574 -0.6581 -2.5036
  424CHL     CL 2296   1.085   3.863   3.245 -0.3623 -0.3575  0.2143
  424CHL      C 2297   0.962   3.915   3.371  0.1598 -0.1865  0.2734
  424CHL    CL1 2298   1.033   4.055   3.460  0.2506  0.0078 -0.4860
  424CHL    CL2 2299   0.814   3.981   3.289 -0.0462  0.1965  0.0132
  424CHL      H 2300   0.935   3.829   3.433  0.0332 -0.0319  0.4350
  425CHL     CL 2301   1.468   0.127   1.901  0.1741  0.1192  0.0192
  425CHL      C 2302   1.353   0.107   2.040  0.9458 -0.5603  0.8128
  425CHL    CL1 2303   1.248   0.256   2.060  0.1225  0.2643 -0.0574
  425CHL    CL2 2304   1.253  -0.040   2.016 -0.0948  0.3934 -0.4183
  425CHL      H 2305   1.398   0.104   2.140 -0.2671  1.7396  1.4956
  426CHL     CL 2306   2.995   2.996   3.847 -0.0953 -0.0484 -0.6926
  426CHL      C 2307   3.057   2.848   3.760 -0.4093 -0.5391  0.4106
  426CHL    CL1 2308   3.186   2.766   3.853  0.2349 -0.2150 -0.1051
  426CHL    CL2 2309   2.923   2.741   3.718 -0.2712  0.3075 -0.2783
  426CHL      H 2310   3.090   2.877   3.660  1.3934  0.9797  1.4037
  427CHL     CL 2311   1.525   3.796   1.683 -0.0352  0.1625  0.4445
  427CHL      C 2312   1.533   3.757   1.513 -0.0006 -0.1656  0.2609
  427CHL    CL1 2313   1.377   3.682   1.460  0.1027 -0.3080 -0.5581
  427CHL    CL2 2314   1.582   3.893   1.401 -0.0306  0.2930  0.0997
  427CHL      H 2315   1.599   3.670   1.502 -0.9817 -0.9699  0.6856
  428CHL     CL 2316   1.934   4.177   3.241  0.0221 -0.3563  0.1208
  428CHL      C 2317   1.848   4.125   3.088 -0.0685 -0.0375 -0.5451
  428CHL    CL1 2318   1.880   4.246   2.958  0.1098  0.1141 -0.0411
  428CHL    CL2 2319   1.908   3.957   3.064  0.2290 -0.4307 -0.4195
  428CHL      H 2320   1.742   4.130   3.115  0.2297  2.9732  0.4341
  429CHL     CL 2321   2.439   1.166   1.568 -0.0624  0.0977 -0.0995
  429CHL      C 2322   2.411   1.019   1.467 -0.9651  0.6393  0.0457
  429CHL    CL1 2323   2.338   1.053   1.303  0.2399  0.3324  0.4099
  429CHL    CL2 2324   2.565   0.936   1.457 -0.4902 -0.5713  0.1726
  429CHL      H 2325   2.337   0.955   1.516 -1.6662  1.3567 -0.0631
  430CHL     CL 2326   2.243   4.162   0.121 -0.3405  0.1277  0.3701
  430CHL      C 2327   2.338   4.022   0.129 -0.3165  0.4137  0.1143
  430CHL    CL1 2328   2.434   3.986   0.281  0.0834 -0.1796  0.2933
  430CHL    CL2 2329   2.227   3.885   0.079  0.4347  0.4894 -0.2325
  430CHL      H 2330   2.405   4.033   0.043  1.1900 -1.6824  0.9324
  431CHL     CL 2331   0.787   0.847   3.301 -0.0170 -0.3192 -0.1029
  431CHL      C 2332   0.821   0.978   3.424 -0.0859 -0.5792 -0.8971
  431CHL    CL1 2333   0.855   1.135   3.342  0.2607  0.0782 -0.2806
  431CHL    CL2 2334   0.689   0.999   3.546 -0.5273 -0.2445 -0.0680
  431CHL      H 2335   0.911   0.965   3.485  1.4821 -0.1762 -2.9915
  432CHL     CL 2336   2.719   1.182   2.195  0.3290 -0.3583  0.1454
  432CHL      C 2337   2.610   1.218   2.056  0.1383 -0.3556 -0.6393
  432CHL    CL1 2338   2.601   1.398   2.029 -0.0069  0.3378  0.4631
  432CHL    CL2 2339   2.666   1.138   1.904  0.1588  0.2557 -0.1080
  432CHL      H 2340   2.508   1.189   2.080 -0.3165  1.1710 -0.5897
  433CHL     CL 2341   2.079   1.854   2.956 -0.4743 -0.1759  0.2780
  433CHL      C 2342   2.090   1.844   3.131 -0.0695 -0.1059  0.3110
  433CHL    CL1 2343   2.192   1.698   3.168 -0.2838 -0.3303 -0.2850
  433CHL    CL2 2344   2.167   1.993   3.209  0.2313 -0.1204  0.0649
  433CHL      H 2345   1.993   1.833   3.178 -2.0265  0.2118 -3.2687
  434CHL     CL 2346   2.768   1.970   4.190 -0.0089  0.1280  0.5208
  434CHL      C 2347   2.899   1.859   4.244  0.3549 -0.0383  0.5177
  434CHL    CL1 2348   2.838   1.775   4.385 -0.0215  0.3728  0.2919
  434CHL    CL2 2349   2.945   1.746   4.114  0.1933  0.1412 -0.0225
  434CHL      H 2350   2.985   1.922   4.269 -0.4527  1.0799  0.5304
  435CHL     CL 2351   3.613   2.977   2.763 -0.0349 -0.2266  0.2154
  435CHL      C 2352   3.764   3.016   2.675 -0.0475  0.5631  0.0992
  435CHL    CL1 2353   3.771   3.201   2.664 -0.0373 -0.2363 -0.5956
  435CHL    CL2 2354   3.914   2.943   2.751 -0.0546  0.0513  0.2876
  435CHL      H 2355   3.760   2.984   2.571 -1.5181 -1.0134  0.5961
  436CHL     CL 2356   3.225   2.548   0.986 -0.1345  0.0465 -0.3748
  436CHL      C 2357   3.357   2.509   0.860  0.5853 -0.2471 -0.2673
  436CHL    CL1 2358   3.508   2.597   0.896 -0.0550 -0.0388  0.0784
  436CHL    CL2 2359   3.372   2.327   0.841  0.1310 -0.0749  0.0959
  436CHL      H 2360   3.327   2.543   0.760  0.5665  1.0328  0.1524
  437CHL     CL 2361   3.427   1.766   1.712  0.0341 -0.0368 -0.2778
  437CHL      C 2362   3.384   1.946   1.726  0.1467 -0.6888  0.2654
  437CHL    CL1 2363   3.291   1.960   1.878  0.0477 -0.0381  0.3170
  437CHL    CL2 2364   3.538   2.047   1.738  0.4987  0.1198  0.1934
  437CHL      H 2365   3.324   1.981   1.641  1.2586 -1.4208 -0.8515
  438CHL     CL 2366   4.048   2.091   0.544 -0.0772 -0.0801 -0.0727
  438CHL      C 2367   4.016   2.059   0.375 -0.1911  0.2343  0.1518
  438CHL    CL1 2368   3.844   2.022   0.348  0.1728 -0.1833  0.3711
  438CHL    CL2 2369   4.077   2.197   0.272  0.2228 -0.3936 -0.1866
  438CHL      H 2370   4.085   1.979   0.347  1.6655  1.4949  0.9447
  439CHL     CL 2371   3.041   3.523   2.961 -0.0644 -0.4742  0.0738
  439CHL      C 2372   2.875   3.479   2.904 -0.7594  0.4134  0.4560
  439CHL    CL1 2373   2.851   3.530   2.734  0.1673 -0.1417  0.5679
  439CHL    CL2 2374   2.858   3.304   2.935 -0.3375 -0.1176 -0.2102
  439CHL      H 2375   2.796   3.526   2.964 -2.0409 -2.5140  1.2271
  440CHL     CL 2376   0.160   3.651   0.922  0.2431 -0.0955  0.0107
  440CHL      C 2377   0.095   3.753   1.061 -0.6753 -0.2886  0.6102
  440CHL    CL1 2378  -0.064   3.826   1.040  0.1107 -0.4512 -0.1907
  440CHL    CL2 2379   0.103   3.665   1.206 -0.2259  0.5596  0.0741
  440CHL      H 2380   0.156   3.843   1.071 -2.3697  1.0376 -0.4246
  441CHL     CL 2381   0.113   2.585   1.390  0.1657 -0.1271 -0.1150
  441CHL      C 2382  -0.049   2.598   1.480  0.0674  0.1939 -0.1988
  441CHL    CL1 2383  -0.104   2.775   1.517  0.1284 -0.2611  0.2373
  441CHL    CL2 2384  -0.178   2.513   1.390  0.0957 -0.4331 -0.3104
  441CHL      H 2385  -0.033   2.553   1.579  0.1816  2.6121  0.9465
  442CHL     CL 2386   0.337   2.304   1.460  0.4054 -0.0164  0.2161
  442CHL      C 2387   0.508   2.309   1.499  0.1226 -0.1256  0.0607
  442CHL    CL1 2388   0.591   2.373   1.360 -0.4265 -0.3986  0.1590
  442CHL    CL2 2389   0.538   2.420   1.643 -0.1338  0.1137  0.0348
  442CHL      H 2390   0.543   2.207   1.517  0.6032  0.1314  0.6020
  443CHL     CL 2391   2.156   3.760   2.722 -0.1445  0.3220  0.0402
  443CHL      C 2392   2.147   3.925   2.779 -0.6657 -0.5724  0.3451
  443CHL    CL1 2393   2.215   3.940   2.948 -0.4499 -0.0378 -0.2483
  443CHL    CL2 2394   2.232   4.037   2.674  0.1548  0.0144 -0.2348
  443CHL      H 2395   2.042   3.956   2.776 -0.3727  0.3495 -0.4932
  444CHL     CL 2396   1.103   3.550   3.520  0.4400  0.0890  0.5142
  444CHL      C 2397   1.209   3.463   3.403  0.9105  0.0554 -0.9311
  444CHL    CL1 2398   1.143   3.458   3.235  0.2922  0.5137  0.1770
  444CHL    CL2 2399   1.368   3.535   3.403 -0.1458 -0.0706 -0.4236
  444CHL      H 2400   1.225   3.362   3.442  1.9710  1.1769  1.7886
  445CHL     CL 2401   2.785   3.222   0.429  0.0338 -0.0543  0.0227
  445CHL      C 2402   2.767   3.169   0.259 -0.1806  0.0103  0.2009
  445CHL    CL1 2403   2.615   3.070   0.248 -0.0833 -0.0035 -0.0482
  445CHL    CL2 2404   2.765   3.309   0.151 -0.0985 -0.3364  0.8573
  445CHL      H 2405   2.844   3.099   0.225  0.4692  0.5045  0.6221
  446CHL     CL 2406   2.426   3.499   1.975 -0.2233 -0.1003  0.3791
  446CHL      C 2407   2.409   3.426   1.804 -0.1932 -0.3106 -0.4486
  446CHL    CL1 2408   2.486   3.540   1.686 -0.8188  0.4027 -0.1540
  446CHL    CL2 2409   2.486   3.264   1.790  0.0233 -0.1679  0.2515
  446CHL      H 2410   2.304   3.422   1.773  0.1960  2.7831 -2.6612
  447CHL     CL 2411   2.167   0.535   2.125  0.1131  0.2621 -0.1871
  447CHL      C 2412   2.173   0.592   1.956 -0.0564 -0.2083  0.6537
  447CHL    CL1 2413   2.297   0.481   1.865  0.0710 -0.2072  0.3552
  447CHL    CL2 2414   2.006   0.547   1.898 -0.0952 -0.2195  0.1316
  447CHL      H 2415   2.196   0.698   1.942  0.1195 -0.2224  0.8391
  448CHL     CL 2416   1.773   0.261   3.966 -0.0622 -0.2661 -0.4573
  448CHL      C 2417   1.951   0.279   4.005 -0.1501  0.0266  0.1400
  448CHL    CL1 2418   1.992   0.199   4.159 -0.2079  0.1839  0.0388
  448CHL    CL2 2419   2.047   0.220   3.854 -0.2665  0.1609 -0.2256
  448CHL      H 2420   1.960   0.388   4.010 -2.0120  0.2377 -0.2458
  449CHL     CL 2421   0.821   3.824   2.297  0.2210 -0.4686  0.3946
  449CHL      C 2422   0.676   3.721   2.355 -0.0550  0.6815 -0.1322
  449CHL    CL1 2423   0.534   3.817   2.320  0.0580 -0.1934 -0.0085
  449CHL    CL2 2424   0.676   3.560   2.259 -0.1264  0.1084  0.3845
  449CHL      H 2425   0.696   3.695   2.460  2.3852 -1.1810 -0.9754
  450CHL     CL 2426   3.585   4.105   3.332 -0.2012  0.0194  0.2842
  450CHL      C 2427   3.694   3.960   3.318  0.6670  0.0985  0.2893
  450CHL    CL1 2428   3.761   3.906   3.471 -0.0318  0.1336  0.2415
  450CHL    CL2 2429   3.607   3.828   3.231  0.1662  0.2669 -0.0504
  450CHL      H 2430   3.778   3.991   3.255  0.5827  1.0731  0.6371
  451CHL     CL 2431   2.725   3.048   1.961 -0.1474  0.0651  0.0142
  451CHL      C 2432   2.677   2.931   1.833  0.2953 -0.3815  0.0555
  451CHL    CL1 2433   2.802   2.808   1.824  0.4684 -0.0323 -0.4460
  451CHL    CL2 2434   2.523   2.853   1.885 -0.0311 -0.0076  0.0432
  451CHL      H 2435   2.675   2.982   1.736 -3.3102  2.5554  1.4225
  452CHL     CL 2436   1.570   0.327   3.481  0.5935  0.1665 -0.4246
  452CHL      C 2437   1.453   0.316   3.617 -0.1474  0.3046 -0.0496
  452CHL    CL1 2438   1.524   0.397   3.762 -0.2988 -0.0704  0.1582
  452CHL    CL2 2439   1.296   0.388   3.572 -0.1323  0.3989  0.0091
  452CHL      H 2440   1.438   0.209   3.632 -1.1194  0.1304 -1.9656
  453CHL     CL 2441   1.691   3.476   1.408 -0.0400  0.2944  0.1570
  453CHL      C 2442   1.828   3.469   1.520  0.3443  0.2971  0.7651
  453CHL    CL1 2443   1.864   3.309   1.586 -0.2860 -0.1383 -0.2899
  453CHL    CL2 2444   1.967   3.531   1.426 -0.5590  0.3961 -0.0131
  453CHL      H 2445   1.806   3.542   1.599  1.2408  1.0450  0.3403
  454CHL     CL 2446   1.518   4.129   3.850  0.1235  0.0884 -0.0303
  454CHL      C 2447   1.563   4.241   3.989 -0.7004  0.3855 -0.1690
  454CHL    CL1 2448   1.445   4.379   3.996  0.0587  0.1802  0.1119
  454CHL    CL2 2449   1.552   4.151   4.150  0.4116  0.2394  0.3081
  454CHL      H 2450   1.668   4.274   3.981 -0.7368  0.5777  0.1152
  455CHL     CL 2451   3.194   0.935   0.464 -0.1966  0.1057  0.0660
  455CHL      C 2452   3.337   0.905   0.575 -0.8409 -0.0732  0.1638
  455CHL    CL1 2453   3.417   0.745   0.535  0.4519  0.2216 -0.0328
  455CHL    CL2 2454   3.442   1.044   0.544 -0.2538 -0.3519 -0.3124
  455CHL      H 2455   3.309   0.914   0.680  1.7474  1.2114  0.8184
  456CHL     CL 2456   4.268   2.855   1.159  0.3323 -0.0971  0.0855
  456CHL      C 2457   4.444   2.895   1.141 -0.2043  0.1852  0.0483
  456CHL    CL1 2458   4.530   2.895   1.304 -0.3961 -0.2663  0.1549
  456CHL    CL2 2459   4.525   2.767   1.032  0.1683 -0.0789 -0.1079
  456CHL      H 2460   4.451   2.989   1.086 -1.0726 -0.0001 -0.4020
  457CHL     CL 2461   1.926   4.209   4.313  0.2735 -0.1757  0.1029
  457CHL      C 2462   2.023   4.100   4.210  0.4575  0.2594 -0.7306
  457CHL    CL1 2463   1.961   4.115   4.041  0.0612  0.3538  0.2583
  457CHL    CL2 2464   2.191   4.158   4.205  0.1231 -0.2444  0.0679
  457CHL      H 2465   2.020   3.996   4.243 -1.1770 -0.1231 -1.9956
  458CHL     CL 2466   0.824   0.279   2.002 -0.0540  0.2707 -0.0687
  458CHL      C 2467   0.799   0.447   1.940  0.0817  0.1264  0.2828
  458CHL    CL1 2468   0.898   0.562   2.032 -0.1898 -0.3231 -0.2900
  458CHL    CL2 2469   0.853   0.458   1.762 -0.2923 -0.4428 -0.1351
  458CHL      H 2470   0.692   0.471   1.935  0.2830  0.8034 -2.0415
  459CHL     CL 2471   0.601   0.172   0.183  0.0006 -0.0323  0.7130
  459CHL      C 2472   0.551   0.017   0.097 -1.1709 -0.1581 -0.1912
  459CHL    CL1 2473   0.690  -0.092   0.047  0.1835  0.6614 -0.1943
  459CHL    CL2 2474   0.440  -0.077   0.206 -0.4788  0.4167  0.3698
  459CHL      H 2475   0.492   0.037   0.007 -1.7062 -1.4912 -0.1573
  460CHL     CL 2476   0.160   0.974   1.074  0.2849  0.1928 -0.4386
  460CHL      C 2477   0.208   0.875   0.930  0.1428 -0.3059 -0.1088
  460CHL    CL1 2478   0.097   0.739   0.923 -0.3603  0.4178 -0.5297
  460CHL    CL2 2479   0.189   0.961   0.774 -0.0624 -0.0295  0.2772
  460CHL      H 2480   0.309   0.841   0.952  0.3784  1.5016  1.9361
  461CHL     CL 2481   0.251   0.565   0.319 -0.1402  0.0308 -0.4274
  461CHL      C 2482   0.300   0.495   0.160  0.0564 -0.0726 -0.5003
  461CHL    CL1 2483   0.478   0.511   0.124  0.4471  0.2187 -0.4154
  461CHL    CL2 2484   0.264   0.320   0.152  0.2856 -0.0916  0.3165
  461CHL      H 2485   0.240   0.547   0.085 -1.5066  0.2635  0.9333
  462CHL     CL 2486   0.056   3.075   0.119  0.0395 -0.1670 -0.2762
  462CHL      C 2487  -0.111   3.127   0.159  0.5863 -0.4158  0.3778
  462CHL    CL1 2488  -0.107   3.302   0.178 -0.1369 -0.3244 -0.3071
  462CHL    CL2 2489  -0.220   3.085   0.018  0.6529  0.0997 -0.1044
  462CHL      H 2490  -0.149   3.083   0.252 -1.8058  0.9740  0.1314
  463CHL     CL 2491   3.701   2.449   4.009 -0.0164  0.6840  0.1185
  463CHL      C 2492   3.865   2.364   4.026 -0.2048  0.1456 -0.1796
  463CHL    CL1 2493   3.978   2.403   3.892  0.2049  0.2121 -0.0184
  463CHL    CL2 2494   3.944   2.403   4.190 -0.1087  0.0193  0.1111
  463CHL      H 2495   3.852   2.255   4.025  2.9179 -0.4070  2.4349
  464CHL     CL 2496   2.409   0.334   2.218 -0.1183 -0.0258 -0.4090
  464CHL      C 2497   2.443   0.292   2.391 -0.4651  0.2378 -0.2136
  464CHL    CL1 2498   2.584   0.379   2.449 -0.1114 -0.1449  0.1030
  464CHL    CL2 2499   2.304   0.331   2.488 -0.3457  0.2978  0.3231
  464CHL      H 2500   2.456   0.184   2.402 -2.0355  0.1105  0.6359
  465CHL     CL 2501   1.683   4.079   0.198 -0.3640 -0.0640 -0.0607
  465CHL      C 2502   1.594   3.939   0.216  0.4207  0.6001  0.0036
  465CHL    CL1 2503   1.478   3.904   0.080  0.1733 -0.2492 -0.0561
  465CHL    CL2 2504   1.706   3.796   0.219 -0.0912  0.2025  0.2556
  465CHL      H 2505   1.529   3.939   0.304 -0.9955 -0.9630 -0.9699
  466CHL     CL 2506   0.337   2.926   2.628 -0.1844  0.0589 -0.0053
  466CHL      C 2507   0.357   2.920   2.456 -0.2909 -0.0525  0.2101
  466CHL    CL1 2508   0.472   3.042   2.381 -0.1069 -0.2098 -0.3864
  466CHL    CL2 2509   0.418   2.758   2.386  0.1724 -0.1873 -0.1236
  466CHL      H 2510   0.258   2.938   2.412 -1.4139 -0.6038  2.3875
  467CHL     CL 2511   4.044   4.225   2.357  0.2379  0.2321 -0.0255
  467CHL      C 2512   3.924   4.250   2.487 -0.8888  0.8030 -0.0187
  467CHL    CL1 2513   3.803   4.117   2.495  0.4731 -0.1251  0.6219
  467CHL    CL2 2514   4.030   4.235   2.631  0.4372 -0.1033 -0.0051
  467CHL      H 2515   3.866   4.344   2.478 -0.7925  0.8938  0.3131
  468CHL     CL 2516   2.193   2.607   1.510 -0.1875 -0.0376  0.3746
  468CHL      C 2517   2.366   2.639   1.471  0.2784 -0.3627  0.1188
  468CHL    CL1 2518   2.361   2.697   1.298 -0.3433  0.4665  0.3462
  468CHL    CL2 2519   2.414   2.755   1.592  0.1603 -0.1421 -0.0305
  468CHL      H 2520   2.426   2.547   1.467 -1.3378 -1.4360 -0.8977
  469CHL     CL 2521   2.395   2.242   3.091  0.4286 -0.0233 -0.0276
  469CHL      C 2522   2.490   2.127   2.997  0.6964  0.1437 -0.2339
  469CHL    CL1 2523   2.382   2.037   2.876  0.5387 -0.0884  0.3913
  469CHL    CL2 2524   2.619   2.214   2.911 -0.0478 -0.0512  0.0260
  469CHL      H 2525   2.532   2.055   3.069 -0.7463  0.0945  0.5945
  470CHL     CL 2526   0.450   4.360   1.239 -0.1922  0.2823  0.4812
  470CHL      C 2527   0.629   4.335   1.197  0.0552  0.3656 -0.1197
  470CHL    CL1 2528   0.674   4.463   1.085 -0.0018 -0.6684  0.6926
  470CHL    CL2 2529   0.723   4.344   1.356 -0.1727  0.3536  0.0405
  470CHL      H 2530   0.646   4.236   1.154  1.7562 -1.2856  3.8888
  471CHL     CL 2531   2.326   3.476   3.787 -0.0772  0.0856  0.3423
  471CHL      C 2532   2.259   3.311   3.789  0.9379  0.3968  0.5054
  471CHL    CL1 2533   2.220   3.267   3.954  0.1216  0.1048 -0.1358
  471CHL    CL2 2534   2.117   3.292   3.680 -0.4641 -0.0755  0.1179
  471CHL      H 2535   2.329   3.235   3.753  0.1038 -1.5543  2.7804
  472CHL     CL 2536   3.692   0.384   3.805  0.3236 -0.4923  0.3688
  472CHL      C 2537   3.771   0.409   3.647 -0.3909  0.9039 -0.0626
  472CHL    CL1 2538   3.879   0.555   3.639  0.0505 -0.0325  0.0492
  472CHL    CL2 2539   3.867   0.262   3.590  0.1146 -0.5604 -0.1311
  472CHL      H 2540   3.702   0.408   3.562 -1.4189  0.2940  0.7614
  473CHL     CL 2541   4.137   0.768   0.531  0.0090 -0.2928 -0.3551
  473CHL      C 2542   4.312   0.806   0.506  0.0021 -0.1856  0.1510
  473CHL    CL1 2543   4.417   0.670   0.565  0.1675 -0.1898 -0.0713
  473CHL    CL2 2544   4.343   0.819   0.328  0.0105  0.1795 -0.0515
  473CHL      H 2545   4.339   0.894   0.565  1.1316 -0.3456 -0.1075
  474CHL     CL 2546   0.485   3.965   1.335 -0.1226 -0.2372  0.3455
  474CHL      C 2547   0.331   4.047   1.332 -0.1953  0.7137  0.1482
  474CHL    CL1 2548   0.283   4.070   1.156 -0.0123  0.2620 -0.1617
  474CHL    CL2 2549   0.203   3.938   1.408  0.1592 -0.2249  0.1013
  474CHL      H 2550   0.328   4.146   1.378 -0.1747  0.3244  0.9920
  475CHL     CL 2551   2.194   4.072   3.574  0.4934 -0.1451 -0.1136
  475CHL      C 2552   2.248   3.973   3.711  0.1294  0.3634 -0.6660
  475CHL    CL1 2553   2.350   3.831   3.671  0.6172  0.4705  0.3330
  475CHL    CL2 2554   2.340   4.075   3.833 -0.4295  0.2193  0.3363
  475CHL      H 2555   2.158   3.941   3.765 -0.9864  1.3174 -1.8897
  476CHL     CL 2556   0.738   0.742   0.408 -0.6562  0.2068 -0.2616
  476CHL      C 2557   0.810   0.575   0.428  0.2401 -0.1562 -0.5541
  476CHL    CL1 2558   0.800   0.477   0.275  0.0998 -0.0549  0.1819
  476CHL    CL2 2559   0.984   0.583   0.471 -0.0316 -0.0961  0.1431
  476CHL      H 2560   0.750   0.523   0.503  1.9457  1.3294  1.9787
  477CHL     CL 2561   1.967   4.147   2.176  0.0461 -0.1146 -0.1020
  477CHL      C 2562   1.912   4.218   2.330 -0.3971 -0.3732  0.4359
  477CHL    CL1 2563   1.811   4.097   2.419 -0.0752 -0.1722 -0.3193
  477CHL    CL2 2564   2.044   4.277   2.426 -0.0341 -0.1044  0.1035
  477CHL      H 2565   1.837   4.295   2.310 -1.3952 -1.2933  0.5757
  478CHL     CL 2566   2.687   1.333   0.262  0.0825 -0.0752  0.4143
  478CHL      C 2567   2.581   1.316   0.109 -0.5654 -0.1799 -0.9215
  478CHL    CL1 2568   2.450   1.201   0.143  0.3480 -0.3484  0.5854
  478CHL    CL2 2569   2.516   1.485   0.065 -0.2245 -0.1246  0.6587
  478CHL      H 2570   2.641   1.277   0.026 -0.5357 -0.9516 -0.5487
  479CHL     CL 2571   0.798   0.785   4.400  0.3495 -0.2067 -0.1501
  479CHL      C 2572   0.650   0.753   4.310 -0.1766 -0.5790  0.8742
  479CHL    CL1 2573   0.547   0.906   4.288 -0.0367  0.1843  0.1968
  479CHL    CL2 2574   0.685   0.690   4.143  0.4632 -0.6096 -0.2580
  479CHL      H 2575   0.585   0.682   4.365  0.1979 -0.1853  1.8441
  480CHL     CL 2576   3.094   0.606   0.658 -0.3213 -0.4296  0.2730
  480CHL      C 2577   3.103   0.631   0.835  0.9920 -0.1391 -0.1979
  480CHL    CL1 2578   3.028   0.507   0.950  0.1191 -0.5139  0.2035
  480CHL    CL2 2579   3.272   0.662   0.871 -0.0918 -0.0425  0.4301
  480CHL      H 2580   3.054   0.727   0.853 -0.3893 -1.1041  1.3524
  481CHL     CL 2581   3.283   2.016   4.331 -0.1418  0.5030  0.0174
  481CHL      C 2582   3.428   1.972   4.224 -0.2428  0.5738 -0.0293
  481CHL    CL1 2583   3.375   1.930   4.064  0.4268  0.6774 -0.2684
  481CHL    CL2 2584   3.525   2.118   4.202  0.4346 -0.0772  0.0663
  481CHL      H 2585   3.486   1.892   4.271 -1.0512 -0.0257 -0.0313
  482CHL     CL 2586   0.737   1.584   0.103 -0.2282  0.1874  0.0286
  482CHL      C 2587   0.616   1.502   0.209  0.0456  0.1647  0.3583
  482CHL    CL1 2588   0.694   1.433   0.354 -0.0179  0.1417 -0.3875
  482CHL    CL2 2589   0.464   1.608   0.250  0.4679 -0.3424  0.3128
  482CHL      H 2590   0.578   1.417   0.151  1.6671 -0.1254 -0.3139
  483CHL     CL 2591   4.252   0.154   2.510  0.1939 -0.3663 -0.1170
  483CHL      C 2592   4.225   0.287   2.394  0.3643 -0.5710  0.3499
  483CHL    CL1 2593   4.352   0.284   2.281 -0.3424  0.0410  0.0207
  483CHL    CL2 2594   4.064   0.260   2.312 -0.1882  0.6942 -0.7447
  483CHL      H 2595   4.219   0.387   2.439 -1.2600 -1.0464  1.2642
  484CHL     CL 2596   0.190   1.846   4.221  0.2147  0.1240  0.1004
  484CHL      C 2597   0.250   1.675   4.241  0.3856  0.1157  0.7171
  484CHL    CL1 2598   0.220   1.633   4.412 -0.2449 -0.1922  0.1378
  484CHL    CL2 2599   0.155   1.560   4.136 -0.0678  0.1685 -0.1800
  484CHL      H 2600   0.358   1.671   4.222  0.7624  1.5941  2.2415
  485CHL     CL 2601   1.600   1.620   0.799  0.2761 -0.3061  0.0422
  485CHL      C 2602   1.523   1.771   0.744  0.5006  0.0145  0.4509
  485CHL    CL1 2603   1.345   1.759   0.761  0.0337 -0.0012  0.0571
  485CHL    CL2 2604   1.584   1.902   0.847 -0.0284 -0.0333 -0.3138
  485CHL      H 2605   1.547   1.792   0.639  0.1174 -0.4793  0.2621
  486CHL     CL 2606   1.045   1.504   4.276  0.4383  0.2428 -0.4110
  486CHL      C 2607   1.014   1.328   4.290 -0.6679  0.1890 -0.3326
  486CHL    CL1 2608   1.166   1.242   4.336  0.1042 -0.1042 -0.1095
  486CHL    CL2 2609   0.879   1.283   4.412 -0.0867  0.3563  0.4471
  486CHL      H 2610   0.983   1.288   4.193 -2.4442  1.0422 -0.1454
  487CHL     CL 2611   3.402   1.422   0.380 -0.0110  0.1599  0.3038
  487CHL      C 2612   3.225   1.451   0.431  0.4326 -0.6683  0.6959
  487CHL    CL1 2613   3.132   1.307   0.422  0.4911  0.1929  0.1372
  487CHL    CL2 2614   3.211   1.512   0.598  0.0833  0.2906  0.0861
  487CHL      H 2615   3.184   1.529   0.366 -0.8289 -1.1666  0.8778
  488CHL     CL 2616   3.402   0.009   3.429 -0.0387 -0.0563 -0.0090
  488CHL      C 2617   3.517   0.031   3.568  0.1024  0.2389  0.0229
  488CHL    CL1 2618   3.460   0.175   3.672 -0.2675  0.3511  0.0080
  488CHL    CL2 2619   3.546  -0.118   3.669 -0.2300  0.0623 -0.2273
  488CHL      H 2620   3.619   0.053   3.537  0.3692  0.9654  1.3309
  489CHL     CL 2621   0.022   4.380   1.899 -0.2959  0.1732  0.2957
  489CHL      C 2622  -0.094   4.255   1.937  0.0920  0.1502 -0.3579
  489CHL    CL1 2623  -0.031   4.105   1.885  0.2115 -0.1907 -0.1012
  489CHL    CL2 2624  -0.111   4.263   2.119  0.5001  0.2826  0.2906
  489CHL      H 2625  -0.188   4.280   1.887 -0.9856 -1.9902  0.4794
  490CHL     CL 2626   3.708   1.960   3.375 -0.1182 -0.6198  0.2087
  490CHL      C 2627   3.826   2.094   3.333  0.7546  0.1733  0.0620
  490CHL    CL1 2628   3.738   2.245   3.332  0.1436  0.3850  0.2684
  490CHL    CL2 2629   3.971   2.104   3.435 -0.0771  0.0317  0.2797
  490CHL      H 2630   3.859   2.075   3.231 -1.1952 -4.1551  0.0365
  491CHL     CL 2631   4.274   2.302   3.458 -0.1137  0.0189 -0.1225
  491CHL      C 2632   4.374   2.152   3.447 -0.3399  0.2772  0.0672
  491CHL    CL1 2633   4.430   2.148   3.287 -0.1194  0.3136  0.1152
  491CHL    CL2 2634   4.497   2.175   3.568 -0.0504 -0.0567  0.1573
  491CHL      H 2635   4.307   2.066   3.460  0.2864 -0.5747 -2.0247
  492CHL     CL 2636   0.454   2.743   1.548  0.2307  0.1153 -0.0084
  492CHL      C 2637   0.453   2.910   1.471 -0.3998  0.5069  0.0525
  492CHL    CL1 2638   0.326   3.009   1.552 -0.1702 -0.2399  0.0297
  492CHL    CL2 2639   0.613   2.975   1.498 -0.3518 -0.5532  0.2796
  492CHL      H 2640   0.437   2.899   1.363 -0.8416 -0.0594  0.1689
  493CHL     CL 2641   1.065   4.239   0.419  0.1500 -0.2840 -0.1954
  493CHL      C 2642   1.062   4.372   0.300  0.3079 -0.5003  0.5467
  493CHL    CL1 2643   1.024   4.311   0.142  0.1024 -0.3315  0.2232
  493CHL    CL2 2644   0.967   4.524   0.350 -0.2817 -0.1693  0.5056
  493CHL      H 2645   1.165   4.406   0.291 -0.4656  1.7658 -0.4412
  494CHL     CL 2646   1.197   2.218   0.285  0.1564  0.2887  0.2428
  494CHL      C 2647   1.097   2.114   0.178  0.6136  0.6223  0.8876
  494CHL    CL1 2648   0.946   2.072   0.256 -0.0443 -0.1536  0.0622
  494CHL    CL2 2649   1.051   2.195   0.020  0.3315 -0.3135 -0.1645
  494CHL      H 2650   1.156   2.026   0.151  0.0356 -0.2744  2.4493
  495CHL     CL 2651   0.721   1.793   0.537  0.1394  0.2838  0.0294
  495CHL      C 2652   0.741   1.763   0.712  0.1066  0.1050  0.3170
  495CHL    CL1 2653   0.603   1.666   0.778 -0.3942  0.8378  0.5333
  495CHL    CL2 2654   0.883   1.662   0.734  0.1918 -0.0938 -0.4781
  495CHL      H 2655   0.742   1.856   0.770  0.1706 -0.6659  1.5864
  496CHL     CL 2656   3.902   1.458   2.954 -0.2031 -0.6113 -0.3890
  496CHL      C 2657   3.774   1.453   3.086 -0.2853 -0.4057  0.2114
  496CHL    CL1 2658   3.847   1.442   3.244  0.6055 -0.1653  0.0248
  496CHL    CL2 2659   3.689   1.610   3.077 -0.0412 -0.1826  0.0121
  496CHL      H 2660   3.711   1.364   3.078  0.1590 -0.6108 -1.3496
  497CHL     CL 2661   3.447   2.124   0.488  0.1847 -0.2334 -0.0900
  497CHL      C 2662   3.406   2.122   0.310 -0.0556  0.1517  0.1662
  497CHL    CL1 2663   3.441   1.955   0.267 -0.3735 -0.3327  0.1234
  497CHL    CL2 2664   3.242   2.178   0.274 -0.4712 -0.0193 -0.1248
  497CHL      H 2665   3.466   2.185   0.242  1.0905 -0.1695  0.8515
  498CHL     CL 2666   4.206   2.699   3.204  0.1247  0.1634 -0.1747
  498CHL      C 2667   4.342   2.606   3.280  0.8882  0.3351  0.1955
  498CHL    CL1 2668   4.423   2.499   3.156  0.0200  0.1741  0.2510
  498CHL    CL2 2669   4.460   2.719   3.350 -0.2698  0.3178  0.4747
  498CHL      H 2670   4.297   2.538   3.353  0.0699  0.1315 -0.4837
  499CHL     CL 2671   3.931   1.926   1.258 -0.3213  0.1249  0.1707
  499CHL      C 2672   4.100   1.878   1.328 -0.2697 -0.6144  0.5521
  499CHL    CL1 2673   4.102   1.705   1.349 -0.4682  0.1042 -0.2642
  499CHL    CL2 2674   4.220   1.942   1.217 -0.5350  0.3058  0.3010
  499CHL      H 2675   4.104   1.929   1.424 -2.3325  0.0388  0.3577
  500CHL     CL 2676   0.051   2.195   1.763  0.2793 -0.7650  0.4365
  500CHL      C 2677   0.034   2.090   1.609 -0.6178 -0.7167  0.1661
  500CHL    CL1 2678  -0.062   1.941   1.629  0.0583 -0.4096 -0.0919
  500CHL    CL2 2679  -0.038   2.181   1.474 -0.4436 -0.1425  0.0059
  500CHL      H 2680   0.132   2.056   1.574 -0.1753  0.8872 -0.2586
  501CHL     CL 2681   0.463   0.788   1.950  0.0542  0.1931 -0.4284
  501CHL      C 2682   0.379   0.655   1.873 -0.8003  0.1880 -1.2082
  501CHL    CL1 2683   0.215   0.728   1.843 -0.0989  0.0878 -0.1616
  501CHL    CL2 2684   0.451   0.628   1.712  0.5180 -0.1166 -0.0059
  501CHL      H 2685   0.377   0.566   1.936  0.9389 -0.3847 -1.9130
  502CHL     CL 2686   1.995   2.550   0.876 -0.3292  0.0644  0.0343
  502CHL      C 2687   2.051   2.641   1.021  0.2484 -0.1175 -0.3298
  502CHL    CL1 2688   2.007   2.811   1.004 -0.3737 -0.0324  0.4284
  502CHL    CL2 2689   1.968   2.578   1.176  0.4027  0.3140 -0.3095
  502CHL      H 2690   2.159   2.640   1.039  0.3709 -1.0223 -1.0449
  503CHL     CL 2691   3.748   4.228   0.001 -0.4490  0.3043  0.3365
  503CHL      C 2692   3.670   4.091   0.064 -0.2614 -0.6721 -0.0760
  503CHL    CL1 2693   3.564   4.153   0.188 -0.0763  0.2746 -0.0743
  503CHL    CL2 2694   3.569   3.995  -0.053  0.0543  0.0483 -0.0667
  503CHL      H 2695   3.744   4.027   0.111  1.0467  0.3738 -0.6572
  504CHL     CL 2696   4.335   0.895   2.982  0.2798  0.0603 -0.2609
  504CHL      C 2697   4.272   1.061   2.951 -0.2395 -0.3068  0.1424
  504CHL    CL1 2698   4.389   1.155   2.852  0.3214 -0.1198 -0.6686
  504CHL    CL2 2699   4.232   1.140   3.117 -0.0309  0.1427 -0.1232
  504CHL      H 2700   4.175   1.054   2.901 -0.4383 -2.2086  0.7308
  505CHL     CL 2701   2.795   1.029   0.084 -0.1326  0.2302  0.2285
  505CHL      C 2702   2.924   0.999   0.202  0.4467  0.1909 -0.2550
  505CHL    CL1 2703   2.851   1.031   0.369 -0.1996  0.1230  0.0702
  505CHL    CL2 2704   2.987   0.837   0.188  0.2687 -0.0234  0.1015
  505CHL      H 2705   3.002   1.074   0.182  1.9408 -1.5318 -1.1272
  506CHL     CL 2706   3.626   0.096   0.218  0.0436 -0.0675 -0.1012
  506CHL      C 2707   3.479   0.139   0.126 -0.2226  0.2963 -1.2870
  506CHL    CL1 2708   3.487   0.313   0.087 -0.1083  0.1906 -0.1946
  506CHL    CL2 2709   3.462   0.028  -0.024  0.0202  0.1412  0.1013
  506CHL      H 2710   3.394   0.121   0.193  1.4141 -0.0184  0.8059
  507CHL     CL 2711   0.784   4.327   2.142  0.1469 -0.1275 -0.2323
  507CHL      C 2712   0.684   4.351   2.290  0.3647 -0.1322  0.0866
  507CHL    CL1 2713   0.608   4.201   2.345  0.0533  0.1791 -0.3182
  507CHL    CL2 2714   0.792   4.431   2.410 -0.4395  0.2575 -0.2850
  507CHL      H 2715   0.607   4.426   2.270  0.7337  0.0277 -0.7564
  508CHL     CL 2716   0.589   2.686   3.786  0.1320  0.1419 -0.1055
  508CHL      C 2717   0.483   2.818   3.849 -0.0724 -0.1240 -0.1675
  508CHL    CL1 2718   0.495   2.835   4.032 -0.5100  0.2490  0.1636
  508CHL    CL2 2719   0.515   2.978   3.765  0.1059  0.0964  0.0410
  508CHL      H 2720   0.380   2.788   3.824 -0.8576  2.8426 -0.8655
  509CHL     CL 2721   2.111   2.070   0.311  0.2014 -0.3995  0.3810
  509CHL      C 2722   1.986   2.169   0.397  0.4424 -0.7211 -0.5585
  509CHL    CL1 2723   1.889   2.251   0.263  0.0468 -0.4469 -0.1433
  509CHL    CL2 2724   1.876   2.072   0.502 -0.0487 -0.1967  0.3503
  509CHL      H 2725   2.036   2.250   0.452  2.1656 -1.6940 -0.6289
  510CHL     CL 2726   0.515   3.601   1.986 -0.1090  0.3338  0.0386
  510CHL      C 2727   0.364   3.505   1.994  0.1287 -0.3171  0.5855
  510CHL    CL1 2728   0.223   3.617   1.965 -0.3311  0.3207  0.3519
  510CHL    CL2 2729   0.363   3.375   1.870  0.2291  0.0007  0.0292
  510CHL      H 2730   0.355   3.464   2.095 -0.0979  0.3078  0.8292
  511CHL     CL 2731   0.021   2.967   0.745  0.1711  0.3865  0.3465
  511CHL      C 2732   0.092   2.873   0.616  0.1674 -0.4603  0.6459
  511CHL    CL1 2733   0.107   2.697   0.671  0.0659  0.0331  0.1273
  511CHL    CL2 2734  -0.020   2.886   0.479 -0.5337  0.3337 -0.2675
  511CHL      H 2735   0.193   2.914   0.601 -0.2190  0.5754  0.7585
  512CHL     CL 2736   4.195   4.113   3.827  0.1682 -0.0710 -0.5039
  512CHL      C 2737   4.060   4.130   3.718  0.4835 -0.6582 -0.3579
  512CHL    CL1 2738   4.042   4.294   3.651 -0.0925  0.0843 -0.0684
  512CHL    CL2 2739   4.062   4.011   3.585  0.2241 -0.0137  0.2136
  512CHL      H 2740   3.975   4.109   3.784  0.8710 -0.4798  0.2020
  513CHL     CL 2741   0.163   1.536   3.784  0.1008 -0.3444 -0.2234
  513CHL      C 2742   0.246   1.683   3.744 -0.4872  0.5997 -0.6698
  513CHL    CL1 2743   0.405   1.683   3.842 -0.1525  0.0078 -0.0775
  513CHL    CL2 2744   0.285   1.689   3.570  0.2802  0.7775 -0.0871
  513CHL      H 2745   0.195   1.773   3.780  0.7479 -0.0637  3.1056
  514CHL     CL 2746   2.557   0.186   3.484 -0.3411 -0.7358 -0.1344
  514CHL      C 2747   2.397   0.226   3.411 -0.4572 -0.0290 -0.4482
  514CHL    CL1 2748   2.393   0.174   3.243 -0.0033 -0.2949 -0.1674
  514CHL    CL2 2749   2.279   0.118   3.496  0.0582  0.0224 -0.1240
  514CHL      H 2750   2.379   0.333   3.425  2.6530  0.4916  0.3234
  515CHL     CL 2751   0.451   2.493   3.273 -0.3183 -0.2330 -0.0048
  515CHL      C 2752   0.324   2.366   3.227  0.5677  0.1183  0.7452
  515CHL    CL1 2753   0.289   2.377   3.050  0.1666  0.1193  0.1059
  515CHL    CL2 2754   0.373   2.200   3.275  0.3712 -0.0117  0.1375
  515CHL      H 2755   0.231   2.392   3.279 -0.3643  3.9161 -2.3641
  516CHL     CL 2756   0.427   4.311   1.577 -0.5030 -0.3443 -0.0486
  516CHL      C 2757   0.508   4.196   1.695 -0.1459 -0.4129 -0.0471
  516CHL    CL1 2758   0.486   4.262   1.863  0.4520  0.4918 -0.5236
  516CHL    CL2 2759   0.427   4.036   1.671 -0.2066  0.0620  0.2195
  516CHL      H 2760   0.614   4.195   1.667  0.3407  1.3755  1.4903
  517CHL     CL 2761   0.289   1.751   0.527  0.3667  0.0822 -0.3719
  517CHL      C 2762   0.165   1.666   0.634 -0.1911  1.0211 -0.4809
  517CHL    CL1 2763   0.197   1.492   0.624 -0.0488  0.0183 -0.0991
  517CHL    CL2 2764   0.165   1.703   0.807 -0.8014  0.2673 -0.2123
  517CHL      H 2765   0.058   1.675   0.610 -0.5078 -0.0603  0.4242
  518CHL     CL 2766   2.401   3.616   3.030  0.3102 -0.0870  0.2009
  518CHL      C 2767   2.481   3.756   3.101  0.7782  0.3020  0.0613
  518CHL    CL1 2768   2.438   3.771   3.274 -0.2036  0.0888  0.2341
  518CHL    CL2 2769   2.667   3.738   3.076  0.0047 -0.0877 -0.3408
  518CHL      H 2770   2.439   3.843   3.049 -0.3292 -1.5305 -2.3176
  519CHL     CL 2771   1.495   1.440   0.002 -0.1231 -0.2399 -0.2669
  519CHL      C 2772   1.443   1.391   0.170 -0.1802  0.2785 -0.4760
  519CHL    CL1 2773   1.527   1.240   0.229  0.1523 -0.1772 -0.1400
  519CHL    CL2 2774   1.468   1.525   0.303 -0.1528 -0.2535 -0.3941
  519CHL      H 2775   1.335   1.370   0.176 -0.1590  0.6210  1.6466
  520CHL     CL 2776   0.681   2.656   1.044  0.2621  0.2106 -0.4527
  520CHL      C 2777   0.543   2.776   1.090  0.1424  0.3603 -0.7076
  520CHL    CL1 2778   0.441   2.824   0.948 -0.1339 -0.3974 -0.6265
  520CHL    CL2 2779   0.420   2.689   1.197  0.0598 -0.0618 -0.0138
  520CHL      H 2780   0.584   2.867   1.135  0.9410  0.2087 -1.1146
  521CHL     CL 2781   2.269   0.499   1.283  0.1354  0.1030  0.0541
  521CHL      C 2782   2.182   0.482   1.435  0.0043  0.3092  0.3136
  521CHL    CL1 2783   2.210   0.312   1.496  0.0657 -0.5968 -0.0054
  521CHL    CL2 2784   2.263   0.610   1.541  0.5074 -0.2832  0.2237
  521CHL      H 2785   2.075   0.498   1.421  0.4583  2.0693 -1.6351
  522CHL     CL 2786   3.032   2.594   0.351 -0.2885  0.0362 -0.1859
  522CHL      C 2787   3.200   2.548   0.389 -0.0195 -0.0799  0.1583
  522CHL    CL1 2788   3.297   2.703   0.429  0.1783 -0.2284  0.1542
  522CHL    CL2 2789   3.214   2.439   0.528  0.0076  0.4932  0.6223
  522CHL      H 2790   3.239   2.486   0.307  0.1641 -0.3145  0.4214
  523CHL     CL 2791   2.862   0.140   3.847  0.3966 -0.0989 -0.2754
  523CHL      C 2792   2.984   0.167   3.724 -0.0419 -0.3325  0.1884
  523CHL    CL1 2793   3.096   0.292   3.788  0.2668 -0.3654 -0.1006
  523CHL    CL2 2794   3.073   0.020   3.686 -0.1238  0.2018 -0.1118
  523CHL      H 2795   2.936   0.196   3.630 -0.1698 -0.9456  0.0617
  524CHL     CL 2796   2.756   3.132   1.495  0.3101 -0.0990  0.1040
  524CHL      C 2797   2.844   3.188   1.353 -0.6498 -0.2487 -0.1962
  524CHL    CL1 2798   3.016   3.214   1.382  0.0293  0.5053 -0.0380
  524CHL    CL2 2799   2.823   3.084   1.204 -0.0265  0.5625  0.5384
  524CHL      H 2800   2.791   3.277   1.315 -0.0239  0.1443 -0.1704
  525CHL     CL 2801   2.649   0.567   1.120  0.2989  0.0312  0.1331
  525CHL      C 2802   2.657   0.453   1.256 -0.4435  0.8914  0.4484
  525CHL    CL1 2803   2.828   0.393   1.271  0.1286 -0.0592  0.2253
  525CHL    CL2 2804   2.628   0.548   1.412 -0.1467  0.5834  0.4056
  525CHL      H 2805   2.593   0.366   1.240 -2.0182  1.9132  0.9698
  526CHL     CL 2806   1.242   0.649   1.923 -0.3138  0.1868  0.3862
  526CHL      C 2807   1.219   0.645   1.751 -0.2586 -0.0386  0.0031
  526CHL    CL1 2808   1.084   0.752   1.707  0.6965  0.1883 -0.2345
  526CHL    CL2 2809   1.373   0.686   1.665 -0.6177 -0.2368 -0.0424
  526CHL      H 2810   1.200   0.542   1.718 -0.9365 -0.2441  1.0051
  527CHL     CL 2811   3.401   1.142   1.968 -0.0635  0.2687 -0.4021
  527CHL      C 2812   3.367   0.981   2.035 -0.1840 -0.4650 -0.4809
  527CHL    CL1 2813   3.337   0.864   1.900  0.0326  0.2559  0.0552
  527CHL    CL2 2814   3.513   0.927   2.125  0.0533  0.2202 -0.3030
  527CHL      H 2815   3.280   0.979   2.102  1.2856  2.5826  1.8118
  528CHL     CL 2816   4.029   2.574   2.666  0.3837  0.1127  0.1255
  528CHL      C 2817   4.077   2.581   2.501 -0.4647  0.2906 -0.1554
  528CHL    CL1 2818   4.255   2.570   2.480 -0.2240 -0.3425  0.2574
  528CHL    CL2 2819   4.018   2.439   2.415 -0.4815 -0.1090  0.0646
  528CHL      H 2820   4.042   2.670   2.448  0.7617  0.5666 -0.5426
  529CHL     CL 2821   2.079   1.103   1.579  0.2507 -0.3342 -0.1427
  529CHL      C 2822   1.917   1.030   1.621  0.4627 -0.0098  0.4993
  529CHL    CL1 2823   1.947   0.848   1.665 -0.4305 -0.4178  0.2114
  529CHL    CL2 2824   1.846   1.116   1.765  0.1193 -0.4906 -0.1972
  529CHL      H 2825   1.841   1.039   1.543  0.1521 -1.1154  0.6565
  530CHL     CL 2826   3.468   2.188   1.319  0.2055 -0.1496  0.0797
  530CHL      C 2827   3.599   2.305   1.282 -0.6029 -0.2854 -0.4460
  530CHL    CL1 2828   3.718   2.217   1.173 -0.2132 -0.0663 -0.0734
  530CHL    CL2 2829   3.522   2.443   1.188  0.2832 -0.1618  0.0603
  530CHL      H 2830   3.652   2.342   1.370  2.2681  0.0297 -2.1720
  531CHL     CL 2831   2.129   1.538   3.703  0.1039 -0.1533 -0.1212
  531CHL      C 2832   1.969   1.523   3.782 -0.6628  0.4292  0.0796
  531CHL    CL1 2833   1.927   1.343   3.808  0.1674  0.0618  0.3016
  531CHL    CL2 2834   1.956   1.609   3.940 -0.5252 -0.2192 -0.1102
  531CHL      H 2835   1.898   1.571   3.714 -0.5748 -0.6574 -0.8125
  532CHL     CL 2836   3.853   1.424   0.494  0.0754  0.4128 -0.0448
  532CHL      C 2837   3.737   1.293   0.483 -0.4622  0.5970 -0.9601
  532CHL    CL1 2838   3.826   1.152   0.423 -0.0813  0.0716 -0.0106
  532CHL    CL2 2839   3.664   1.272   0.644 -0.1310 -0.0214  0.0515
  532CHL      H 2840   3.660   1.324   0.412 -2.5320 -1.6653  0.1484
  533CHL     CL 2841   4.203   1.057   0.743  0.0966  0.1640  0.0563
  533CHL      C 2842   4.251   0.996   0.910  0.6963 -0.1565 -0.3327
  533CHL    CL1 2843   4.208   1.112   1.040  0.2751  0.4334  0.2325
  533CHL    CL2 2844   4.166   0.837   0.958 -0.1868 -0.4757 -0.4891
  533CHL      H 2845   4.354   0.961   0.904  0.2028 -1.6141 -0.8891
  534CHL     CL 2846   3.860   2.691   2.047 -0.1451  0.0514  0.2163
  534CHL      C 2847   3.815   2.814   2.178 -0.5071  0.8502  0.0177
  534CHL    CL1 2848   3.720   2.723   2.297 -0.3437  0.3372 -0.3224
  534CHL    CL2 2849   3.968   2.866   2.261  0.2319  0.0625 -0.2876
  534CHL      H 2850   3.757   2.893   2.129 -0.4862  1.2560  0.6378
  535CHL     CL 2851   0.189   1.869   2.724 -0.2820 -0.0130  0.0910
  535CHL      C 2852   0.050   1.983   2.773 -0.2486  0.3719  0.2255
  535CHL    CL1 2853  -0.087   1.949   2.666 -0.2643  0.1507  0.1731
  535CHL    CL2 2854  -0.008   1.941   2.936 -0.7416  0.4983 -0.3869
  535CHL      H 2855   0.080   2.088   2.772  1.2298 -0.0280 -0.0667
  536CHL     CL 2856   3.610   1.553   1.454  0.2967 -0.0281 -0.5190
  536CHL      C 2857   3.604   1.383   1.513 -0.9950 -0.0141  0.0612
  536CHL    CL1 2858   3.768   1.309   1.558 -0.1986 -0.1598 -0.1714
  536CHL    CL2 2859   3.511   1.391   1.665 -0.4403  0.5724  0.4863
  536CHL      H 2860   3.552   1.320   1.440  2.2537 -1.3485 -1.2892
  537CHL     CL 2861   0.911   2.624   3.112 -0.1184  0.2073  0.0467
  537CHL      C 2862   1.003   2.762   3.055 -0.8272 -0.1899  0.4387
  537CHL    CL1 2863   1.036   2.741   2.886 -0.0454 -0.4054 -0.0357
  537CHL    CL2 2864   0.913   2.915   3.081  0.1527 -0.2214  0.2872
  537CHL      H 2865   1.099   2.774   3.107 -0.0045 -0.0527 -1.0352
  538CHL     CL 2866   4.065   1.045   1.890  0.2124 -0.1144 -0.0955
  538CHL      C 2867   3.897   0.982   1.891 -0.4172  0.0635  0.3258
  538CHL    CL1 2868   3.798   1.079   2.005 -0.0656  0.1234 -0.2908
  538CHL    CL2 2869   3.828   1.001   1.726 -0.3083  0.0790 -0.1497
  538CHL      H 2870   3.894   0.876   1.919 -2.1131  0.1804  0.6726
  539CHL     CL 2871   3.901   2.533   0.565 -0.0487 -0.2947 -0.1178
  539CHL      C 2872   3.741   2.500   0.644 -0.5565  0.6524  0.1187
  539CHL    CL1 2873   3.621   2.484   0.519 -0.4785 -0.0148  0.1322
  539CHL    CL2 2874   3.760   2.342   0.730  0.5122  0.2204  0.5088
  539CHL      H 2875   3.730   2.589   0.707  3.2011 -0.1119  2.1533
  540CHL     CL 2876   0.070   3.540   2.816 -0.1590 -0.4583 -0.2749
  540CHL      C 2877   0.130   3.453   2.964 -0.1687  0.0694 -0.6170
  540CHL    CL1 2878   0.009   3.336   3.029 -0.2009  0.1763  0.3566
  540CHL    CL2 2879   0.280   3.349   2.938 -0.2359 -0.2860  0.0064
  540CHL      H 2880   0.156   3.532   3.036  0.0206  0.6654 -1.3294
  541CHL     CL 2881   3.302   3.289   2.832 -0.3630 -0.1834  0.1645
  541CHL      C 2882   3.413   3.304   2.973 -0.0853  0.1463  0.1145
  541CHL    CL1 2883   3.393   3.456   3.067  0.2341  0.3726 -0.2154
  541CHL    CL2 2884   3.392   3.167   3.087  0.1589 -0.1151  0.1160
  541CHL      H 2885   3.510   3.302   2.924 -0.9716 -0.9687 -1.7277
  542CHL     CL 2886   4.325   2.558   2.102 -0.1500 -0.0330  0.3724
  542CHL      C 2887   4.218   2.464   1.983 -0.2529 -0.4122 -0.7234
  542CHL    CL1 2888   4.064   2.402   2.046 -0.0001  0.0349 -0.1138
  542CHL    CL2 2889   4.170   2.575   1.838  0.1374  0.0464 -0.1493
  542CHL      H 2890   4.279   2.379   1.950  1.0439  0.0816  0.3336
  543CHL     CL 2891   0.785   3.499   4.396 -0.0302  0.2526  0.1306
  543CHL      C 2892   0.827   3.641   4.299 -0.4865 -0.5829  0.4913
  543CHL    CL1 2893   0.810   3.620   4.113 -0.3313  0.0517  0.4174
  543CHL    CL2 2894   0.739   3.790   4.348  0.1928 -0.0136 -0.0770
  543CHL      H 2895   0.932   3.668   4.314 -0.2117 -0.8988 -0.7438
  544CHL     CL 2896   3.283   0.968   0.138 -0.0332  0.4059 -0.2473
  544CHL      C 2897   3.401   1.089   0.084 -0.0190 -0.6104  0.3020
  544CHL    CL1 2898   3.323   1.260   0.056  0.8343 -0.3890 -0.3035
  544CHL    CL2 2899   3.525   1.103   0.206 -0.0944 -0.0201  0.1808
  544CHL      H 2900   3.446   1.063  -0.013 -0.0538 -0.2682  0.1885
  545CHL     CL 2901   1.888   2.375   3.172 -0.0076  0.2490 -0.0104
  545CHL      C 2902   2.065   2.405   3.154 -0.1463 -0.1144  0.5959
  545CHL    CL1 2903   2.083   2.580   3.089 -0.0449  0.0269 -0.1254
  545CHL    CL2 2904   2.158   2.376   3.312  0.2267 -0.2264 -0.2822
  545CHL      H 2905   2.119   2.346   3.079  0.7078  0.5205  0.7030
  546CHL     CL 2906   3.453   2.994   2.369 -0.2357 -0.0925  0.2208
  546CHL      C 2907   3.521   3.159   2.354 -0.6294 -0.1174 -0.0746
  546CHL    CL1 2908   3.710   3.154   2.348  0.0254 -0.0234 -0.5841
  546CHL    CL2 2909   3.450   3.254   2.216  0.1822  0.2733  0.7540
  546CHL      H 2910   3.496   3.221   2.440 -2.7715 -0.7413 -0.2003
  547CHL     CL 2911   1.618   2.359   2.944 -0.1515 -0.4560 -0.0582
  547CHL      C 2912   1.739   2.253   2.861 -0.2003  0.0264 -0.5205
  547CHL    CL1 2913   1.910   2.318   2.858 -0.7968 -0.3001  0.3496
  547CHL    CL2 2914   1.747   2.101   2.946  0.2850  0.1532  0.4283
  547CHL      H 2915   1.712   2.234   2.756 -0.3872 -1.2330 -0.2573
  548CHL     CL 2916   0.262   1.126   1.815 -0.1299 -0.4634  0.0371
  548CHL      C 2917   0.181   1.163   1.973  0.6632 -0.0410 -1.1252
  548CHL    CL1 2918   0.263   1.307   2.027  0.0503 -0.3346 -0.2082
  548CHL    CL2 2919   0.009   1.204   1.943  0.0598 -0.1177 -0.3221
  548CHL      H 2920   0.198   1.086   2.048 -1.0094  1.0681  0.4860
  549CHL     CL 2921   2.718   1.771   2.483 -0.1327 -0.2619  0.1094
  549CHL      C 2922   2.773   1.605   2.452 -0.2862 -0.3343 -0.3408
  549CHL    CL1 2923   2.665   1.485   2.525 -0.2586  0.1354  0.2916
  549CHL    CL2 2924   2.767   1.599   2.272 -0.1325  0.0146  0.2246
  549CHL      H 2925   2.877   1.595   2.485 -0.1559  0.7309 -0.3818
  550CHL     CL 2926   0.663   1.869   3.569 -0.4214  0.0264 -0.6069
  550CHL      C 2927   0.645   2.032   3.492  0.3545  0.5031  0.7139
  550CHL    CL1 2928   0.662   2.162   3.601  0.3120 -0.0328  0.4232
  550CHL    CL2 2929   0.723   2.048   3.332  0.4324 -0.0615  0.0073
  550CHL      H 2930   0.542   2.028   3.456  0.7382 -1.1995 -0.3471
  551CHL     CL 2931   1.270   3.112   4.044  0.1532 -0.0950 -0.0633
  551CHL      C 2932   1.227   3.256   4.152 -0.4088  0.1825  0.1694
  551CHL    CL1 2933   1.155   3.387   4.058 -0.6065  0.1331 -0.3796
  551CHL    CL2 2934   1.113   3.207   4.288  0.0393 -0.0610 -0.3702
  551CHL      H 2935   1.324   3.292   4.187 -0.4344  0.4121  0.0035
  552CHL     CL 2936   4.382   0.696   2.254  0.2143 -0.1014 -0.2492
  552CHL      C 2937   4.286   0.846   2.207  0.2374  0.3977 -0.3388
  552CHL    CL1 2938   4.298   0.989   2.336 -0.1013  0.2450  0.3704
  552CHL    CL2 2939   4.343   0.889   2.047 -0.5096  0.1410 -0.7390
  552CHL      H 2940   4.181   0.819   2.201 -0.4269  2.3261  1.3266
  553CHL     CL 2941   0.934   2.107   1.852 -0.0335 -0.3557 -0.3040
  553CHL      C 2942   0.826   2.041   1.730  0.3794 -0.3701 -0.2987
  553CHL    CL1 2943   0.805   2.152   1.593  0.0858  0.5255 -0.2111
  553CHL    CL2 2944   0.901   1.890   1.675  0.3067  0.3508  0.0126
  553CHL      H 2945   0.736   2.018   1.787 -0.9183  1.5695 -1.4609
  554CHL     CL 2946   2.778   3.918   3.692 -0.0511  0.0907  0.1670
  554CHL      C 2947   2.841   4.005   3.550  0.7847 -0.1902  0.3646
  554CHL    CL1 2948   3.013   4.013   3.560 -0.1457  0.0377 -0.0663
  554CHL    CL2 2949   2.797   3.935   3.393  0.0043 -0.2940 -0.2231
  554CHL      H 2950   2.795   4.104   3.551  0.0878 -0.4655 -1.1743
  555CHL     CL 2951   3.187   3.423   3.950  0.0403  0.5626 -0.2043
  555CHL      C 2952   3.315   3.361   3.834  0.4418 -0.0988 -0.2440
  555CHL    CL1 2953   3.481   3.388   3.902 -0.1573 -0.3256 -0.2590
  555CHL    CL2 2954   3.280   3.186   3.799 -0.4638  0.1304  0.1812
  555CHL      H 2955   3.303   3.413   3.738  1.0080 -0.0785 -0.3060
  556CHL     CL 2956   2.203   2.393   4.295 -0.4043  0.0683  0.1734
  556CHL      C 2957   2.260   2.536   4.393  0.0780  0.0072  0.2388
  556CHL    CL1 2958   2.168   2.544   4.552 -0.4737  0.4069  0.5286
  556CHL    CL2 2959   2.430   2.495   4.430 -0.0473  0.0461  0.0670
  556CHL      H 2960   2.243   2.623   4.329 -1.9515 -0.2682  0.3328
  557CHL     CL 2961   1.218   2.288   4.091 -0.1824 -0.2143  0.1056
  557CHL      C 2962   1.369   2.257   4.185 -0.1626  0.5483 -0.0628
  557CHL    CL1 2963   1.469   2.155   4.084 -0.1656  0.1547  0.1472
  557CHL    CL2 2964   1.461   2.400   4.235 -0.2002  0.3113  0.0406
  557CHL      H 2965   1.343   2.197   4.273 -2.8663 -2.3022 -2.5500
  558CHL     CL 2966   1.402   2.749   4.361 -0.6448  0.0604  0.1488
  558CHL      C 2967   1.239   2.684   4.337  0.0082 -0.5348  0.0851
  558CHL    CL1 2968   1.193   2.653   4.172 -0.0411 -0.0580  0.1039
  558CHL    CL2 2969   1.215   2.523   4.434 -0.0152 -0.1823  0.2707
  558CHL      H 2970   1.176   2.768   4.368  0.1202 -0.9746  1.5296
  559CHL     CL 2971   3.455   0.716   3.156  0.3937 -0.2047 -0.6346
  559CHL      C 2972   3.385   0.853   3.071  0.1445  0.3985 -0.0315
  559CHL    CL1 2973   3.459   0.896   2.913 -0.3914 -0.0888  0.3384
  559CHL    CL2 2974   3.209   0.821   3.053  0.0620  0.2776  0.1396
  559CHL      H 2975   3.399   0.943   3.130  0.9199 -0.3697  0.9960
  560CHL     CL 2976   0.736   0.495   2.910 -0.0340  0.0919 -0.3568
  560CHL      C 2977   0.887   0.488   2.811 -0.1280 -0.5362  0.1193
  560CHL    CL1 2978   0.841   0.522   2.635 -0.6295  0.1726 -0.0636
  560CHL    CL2 2979   1.000   0.622   2.877  0.2557  0.4465 -0.4553
  560CHL      H 2980   0.938   0.393   2.830  2.5751  1.0473  1.4304
  561CHL     CL 2981   1.691   3.593   0.792 -0.1296  0.0124  0.1461
  561CHL      C 2982   1.698   3.460   0.671 -0.5336  0.0701  0.1171
  561CHL    CL1 2983   1.566   3.454   0.553  0.3861 -0.0604  0.0686
  561CHL    CL2 2984   1.856   3.478   0.589  0.2714 -0.4150 -0.2452
  561CHL      H 2985   1.711   3.368   0.729 -0.0342  2.0136  3.3451
  562CHL     CL 2986   0.037   3.081   3.529 -0.0464  0.0439 -0.2019
  562CHL      C 2987   0.025   3.138   3.353  0.2256 -0.5245 -0.4706
  562CHL    CL1 2988   0.138   3.056   3.247  0.1726 -0.1318 -0.4864
  562CHL    CL2 2989  -0.145   3.133   3.285  0.0706  0.3716 -0.5415
  562CHL      H 2990   0.058   3.242   3.355  2.0260 -1.0722 -0.1680
  563CHL     CL 2991   2.925   0.442   3.516 -0.1169 -0.0380  0.1734
  563CHL      C 2992   2.927   0.523   3.355  0.2325  0.4288  0.3285
  563CHL    CL1 2993   3.013   0.419   3.243  0.4507  0.5450 -0.0367
  563CHL    CL2 2994   2.756   0.529   3.294 -0.1863 -0.3075  0.3475
  563CHL      H 2995   2.981   0.617   3.363  0.9416 -0.0510  1.3352
  564CHL     CL 2996   1.785   2.639   4.319  0.4522 -0.1249  0.1820
  564CHL      C 2997   1.801   2.549   4.471  0.1671 -0.8741 -0.1965
  564CHL    CL1 2998   1.814   2.671   4.608 -0.0389  0.3395 -0.0940
  564CHL    CL2 2999   1.666   2.425   4.487  0.3671  0.0777  0.0387
  564CHL      H 3000   1.891   2.488   4.464 -1.5290 -3.5075 -0.5800
  565CHL     CL 3001   2.701   3.390   0.866 -0.0634  0.0750  0.0841
  565CHL      C 3002   2.810   3.453   0.997  0.1877 -0.8325  0.3975
  565CHL    CL1 3003   2.950   3.343   1.025 -0.3553  0.1716  0.0143
  565CHL    CL2 3004   2.724   3.491   1.148  0.2951  0.4094 -0.2312
  565CHL      H 3005   2.857   3.548   0.969 -1.0977  0.0015  0.9643
  566CHL     CL 3006   4.103   0.958   0.019 -0.0793 -0.0343  0.1994
  566CHL      C 3007   4.018   1.114   0.007 -0.0101  0.0883 -0.6134
  566CHL    CL1 3008   4.022   1.171  -0.168  0.0159 -0.1973  0.0582
  566CHL    CL2 3009   3.848   1.084   0.042 -0.1086 -0.0490 -0.1065
  566CHL      H 3010   4.063   1.193   0.069 -2.4042  2.1038 -1.2916
  567CHL     CL 3011   1.699   4.246   1.577  0.1988  0.2891  0.1767
  567CHL      C 3012   1.776   4.384   1.660 -0.1162 -0.4716  0.1393
  567CHL    CL1 3013   1.674   4.531   1.627  0.0799 -0.0299  0.2340
  567CHL    CL2 3014   1.778   4.366   1.845 -0.2639 -0.2020  0.2968
  567CHL      H 3015   1.876   4.402   1.619  0.3358  1.4191  1.9453
  568CHL     CL 3016   2.127   2.905   0.190 -0.0183  0.3918  0.0306
  568CHL      C 3017   2.272   2.970   0.105  0.2293  0.3562 -0.1866
  568CHL    CL1 3018   2.325   2.864  -0.027 -0.3292  0.0928  0.3754
  568CHL    CL2 3019   2.246   3.127   0.035 -0.1956 -0.0129 -0.6719
  568CHL      H 3020   2.339   2.975   0.192 -3.4690  1.0753  2.8580
  569CHL     CL 3021   3.692   2.714   0.098  0.1030  0.2880 -0.0208
  569CHL      C 3022   3.546   2.639   0.020 -0.4706 -0.7458 -0.1972
  569CHL    CL1 3023   3.555   2.459   0.029 -0.5803  0.2129  0.1562
  569CHL    CL2 3024   3.407   2.698   0.109  0.1979  0.2597  0.2227
  569CHL      H 3025   3.542   2.671  -0.085  3.1272 -1.6997 -0.7532
  570CHL     CL 3026   0.717   3.732   2.750 -0.0881 -0.1649 -0.1089
  570CHL      C 3027   0.730   3.864   2.878 -0.1613  0.7018  0.4120
  570CHL    CL1 3028   0.905   3.887   2.912  0.2865 -0.1460  0.3063
  570CHL    CL2 3029   0.645   4.013   2.827  0.0432 -0.4334 -0.3525
  570CHL      H 3030   0.676   3.822   2.964 -1.0811 -0.1370 -0.5294
  571CHL     CL 3031   3.793   2.026   2.179 -0.0153 -0.3016 -0.0324
  571CHL      C 3032   3.702   2.126   2.061 -0.1951  0.2399  0.6864
  571CHL    CL1 3033   3.538   2.106   2.109  0.0228 -0.8290  0.0624
  571CHL    CL2 3034   3.749   2.300   2.069  0.2170  0.1840 -0.8852
  571CHL      H 3035   3.726   2.085   1.962  1.0134 -0.7831  1.3777
  572CHL     CL 3036   1.307   0.965   0.925  0.0173  0.0753  0.1922
  572CHL      C 3037   1.234   0.803   0.914 -0.4607  0.2734 -0.2140
  572CHL    CL1 3038   1.117   0.795   0.768  0.2423  0.2564 -0.0833
  572CHL    CL2 3039   1.363   0.674   0.908  0.3440 -0.1444 -0.2713
  572CHL      H 3040   1.170   0.788   1.002 -1.4037 -1.8920 -1.1775
  573CHL     CL 3041   1.458   1.827   3.976  0.2783  0.3735  0.1707
  573CHL      C 3042   1.409   1.713   3.851 -0.2011 -0.5463 -0.3517
  573CHL    CL1 3043   1.489   1.555   3.869 -0.4741  0.8494  0.0448
  573CHL    CL2 3044   1.231   1.680   3.884 -0.4377  0.3925 -0.3748
  573CHL      H 3045   1.432   1.751   3.751 -0.3620  0.3237 -0.0594
  574CHL     CL 3046   2.228   3.883   1.173 -0.0402  0.1686 -0.3486
  574CHL      C 3047   2.199   3.758   1.307 -0.5484  0.1387 -0.1974
  574CHL    CL1 3048   2.209   3.610   1.219  0.3293 -0.5473  0.3443
  574CHL    CL2 3049   2.341   3.752   1.429 -0.3816 -0.1285  0.0484
  574CHL      H 3050   2.103   3.780   1.356 -0.3562  0.2599  0.1231
  575CHL     CL 3051   3.734   2.366   3.638 -0.1227 -0.0849  0.3412
  575CHL      C 3052   3.805   2.515   3.557 -0.2384 -0.6349  0.2257
  575CHL    CL1 3053   3.960   2.470   3.471 -0.2139  0.0466  0.0551
  575CHL    CL2 3054   3.692   2.574   3.430 -0.4345 -0.4141 -0.0037
  575CHL      H 3055   3.843   2.595   3.622  1.7039  1.8973 -3.6430
  576CHL     CL 3056   1.876   3.271   0.933 -0.0988  0.1928 -0.0687
  576CHL      C 3057   1.995   3.383   1.012 -0.5471  0.4855 -0.2171
  576CHL    CL1 3058   2.151   3.297   1.055  0.2881  0.2924  0.2771
  576CHL    CL2 3059   2.033   3.526   0.908 -0.1384 -0.4675  0.5986
  576CHL      H 3060   1.952   3.431   1.101 -0.6149 -1.8487  1.0973
  577CHL     CL 3061   1.070   1.239   0.914  0.1993 -0.3060 -0.4943
  577CHL      C 3062   1.164   1.353   0.826  0.0341  0.1049  0.0779
  577CHL    CL1 3063   1.303   1.433   0.912  0.2379 -0.0005 -0.0976
  577CHL    CL2 3064   1.217   1.271   0.673 -0.1578  0.0196 -0.3629
  577CHL      H 3065   1.100   1.434   0.791 -1.4563 -1.5034 -1.1146
  578CHL     CL 3066   4.288   2.859   2.911 -0.2280  0.1762 -0.3581
  578CHL      C 3067   4.444   2.878   2.826 -0.2667  0.1454 -0.1357
  578CHL    CL1 3068   4.581   2.833   2.942 -0.1242  0.2682  0.0310
  578CHL    CL2 3069   4.431   2.784   2.673  0.2747 -0.2832  0.1140
  578CHL      H 3070   4.463   2.981   2.794 -0.2165  0.2990  0.3660
  579CHL     CL 3071   4.059   3.777   2.466 -0.6097 -0.1837  0.0870
  579CHL      C 3072   4.192   3.868   2.545 -0.3536 -0.4615 -0.3899
  579CHL    CL1 3073   4.136   3.911   2.711 -0.1389  0.3276  0.2415
  579CHL    CL2 3074   4.346   3.776   2.545 -0.0154 -0.1194 -0.1188
  579CHL      H 3075   4.210   3.964   2.494 -1.3099  0.8629  1.5988
  580CHL     CL 3076   3.736   2.653   2.927  0.1480  0.1314 -0.2808
  580CHL      C 3077   3.585   2.563   2.888 -0.2896 -0.3537 -0.6826
  580CHL    CL1 3078   3.577   2.430   2.995  0.1591  0.5056  0.0104
  580CHL    CL2 3079   3.440   2.659   2.910 -0.1113 -0.0519 -0.2039
  580CHL      H 3080   3.602   2.521   2.788  2.0032  2.1336 -1.4196
  581CHL     CL 3081   3.563   0.853   3.819  0.1635  0.1633 -0.3622
  581CHL      C 3082   3.719   0.870   3.925 -0.6197  0.7043  0.1369
  581CHL    CL1 3083   3.848   0.936   3.823 -0.0393  0.0843  0.2849
  581CHL    CL2 3084   3.703   0.986   4.063 -0.2894  0.2252  0.1332
  581CHL      H 3085   3.745   0.772   3.967  0.2009  1.1338  0.6675
  582CHL     CL 3086   2.860   3.956   4.137  0.2479  0.1112  0.1645
  582CHL      C 3087   2.799   4.115   4.059  0.4772 -0.0723  0.3376
  582CHL    CL1 3088   2.886   4.150   3.900  0.2807 -0.3449  0.0779
  582CHL    CL2 3089   2.619   4.130   4.029 -0.1006  0.1737 -0.4180
  582CHL      H 3090   2.824   4.196   4.128  0.6307  0.7558 -0.6621
  583CHL     CL 3091   2.316   0.744   0.753  0.2344 -0.3758  0.5781
  583CHL      C 3092   2.326   0.882   0.871 -0.1995  0.1176 -0.2741
  583CHL    CL1 3093   2.188   0.994   0.855  0.2900 -0.3092  0.0136
  583CHL    CL2 3094   2.327   0.814   1.037  0.0747 -0.1568  0.2400
  583CHL      H 3095   2.413   0.947   0.851 -1.2257  1.6529  0.0992
  584CHL     CL 3096   0.925   0.925   2.356 -0.1407 -0.2091 -0.1848
  584CHL      C 3097   0.839   0.865   2.211  0.2302 -0.5257 -0.3746
  584CHL    CL1 3098   0.668   0.879   2.231 -0.4414 -0.5314 -0.0763
  584CHL    CL2 3099   0.902   0.953   2.071  0.0366  0.2560  0.0626
  584CHL      H 3100   0.863   0.759   2.199  0.4891 -0.4043 -1.0079
  585CHL     CL 3101   0.446   3.601   1.361  1.0058  0.3598 -0.0506
  585CHL      C 3102   0.395   3.528   1.518  0.6011  0.3005  0.7067
  585CHL    CL1 3103   0.215   3.523   1.532  0.1416 -0.0596  0.6019
  585CHL    CL2 3104   0.462   3.370   1.541  0.0690  0.2570  0.2839
  585CHL      H 3105   0.437   3.594   1.594  1.6737 -0.5169  0.8409
  586CHL     CL 3106   0.510   3.317   1.004 -0.1675  0.1546  0.2491
  586CHL      C 3107   0.332   3.314   0.960 -0.0782  0.0729 -0.1431
  586CHL    CL1 3108   0.303   3.180   0.829 -0.1546 -0.4718  0.0734
  586CHL    CL2 3109   0.248   3.281   1.108 -0.0240  0.3030  0.3604
  586CHL      H 3110   0.307   3.412   0.918  0.3463  1.5914  2.8661
  587CHL     CL 3111   2.864   0.085   3.361  0.6916 -0.1470  0.0698
  587CHL      C 3112   3.030   0.026   3.341  0.5909  0.3626 -0.6425
  587CHL    CL1 3113   3.032  -0.153   3.336  0.5159  0.1297  0.2477
  587CHL    CL2 3114   3.092   0.093   3.190 -0.1902 -0.4369 -0.2544
  587CHL      H 3115   3.093   0.059   3.425 -0.3969  1.3734 -0.2716
  588CHL     CL 3116   0.802   3.563   3.159 -0.0333  0.1226 -0.2383
  588CHL      C 3117   0.723   3.527   3.320  0.0436  0.0000 -0.1668
  588CHL    CL1 3118   0.549   3.505   3.300  0.1367 -0.6277 -0.1164
  588CHL    CL2 3119   0.804   3.385   3.390  0.1725  0.0227  0.1442
  588CHL      H 3120   0.718   3.610   3.391 -2.5040 -0.2349  0.0356
  589CHL     CL 3121   2.472   2.415   0.382  0.5075 -0.1343 -0.0858
  589CHL      C 3122   2.446   2.257   0.461  0.1822 -0.2715  0.5755
  589CHL    CL1 3123   2.588   2.216   0.569  0.2878 -0.4356  0.1399
  589CHL    CL2 3124   2.288   2.259   0.557  0.0070 -0.3676 -0.2108
  589CHL      H 3125   2.437   2.178   0.385  2.0111 -0.3421  0.3953
  590CHL     CL 3126   1.446   1.189   3.619  0.3100  0.2222  0.5296
  590CHL      C 3127   1.562   1.084   3.537  0.3053 -0.2014  0.9047
  590CHL    CL1 3128   1.576   0.926   3.612  0.1012 -0.0634 -0.1395
  590CHL    CL2 3129   1.524   1.068   3.355 -0.2656  0.1366  0.0008
  590CHL      H 3130   1.656   1.135   3.560  0.7036 -1.0559  1.2147
  591CHL     CL 3131   0.916   0.885   1.045 -0.2046  0.2637 -0.1087
  591CHL      C 3132   0.777   1.000   1.065 -0.0654 -0.0262  0.3401
  591CHL    CL1 3133   0.619   0.907   1.080  0.1887  0.1780  0.5789
  591CHL    CL2 3134   0.804   1.083   1.218 -0.3912  0.1381 -0.0221
  591CHL      H 3135   0.774   1.070   0.981 -0.4829  0.6468  0.8989
  592CHL     CL 3136   2.351   2.809   3.436  0.0407 -0.1139 -0.0712
  592CHL      C 3137   2.471   2.873   3.548 -0.6564  0.1171  0.0641
  592CHL    CL1 3138   2.474   2.765   3.692 -0.2947 -0.4114  0.2235
  592CHL    CL2 3139   2.634   2.879   3.467  0.0309 -0.2308 -0.4013
  592CHL      H 3140   2.445   2.977   3.571  1.6506  0.9707 -0.9161
  593CHL     CL 3141   3.119   0.537   4.011 -0.6189  0.1251  0.4029
  593CHL      C 3142   3.247   0.413   4.072 -0.3097 -0.3643 -1.2106
  593CHL    CL1 3143   3.323   0.466   4.222  0.2875  0.3150 -0.0170
  593CHL    CL2 3144   3.152   0.263   4.117 -0.6579  0.0940 -0.2141
  593CHL      H 3145   3.319   0.382   3.995  0.1958  0.1754 -0.9616
  594CHL     CL 3146   0.850   3.617   1.753  0.1748 -0.3208  0.0171
  594CHL      C 3147   0.842   3.713   1.592  0.2274  0.3161 -0.0860
  594CHL    CL1 3148   0.797   3.604   1.451 -0.0222  0.2525  0.1287
  594CHL    CL2 3149   0.724   3.841   1.608  0.2316 -0.2368 -0.3054
  594CHL      H 3150   0.942   3.754   1.576  1.2125 -1.7079  0.4786
  595CHL     CL 3151   1.764   3.870   2.752 -0.3046 -0.1883 -0.0958
  595CHL      C 3152   1.670   3.726   2.822  0.0389  0.0774  0.2984
  595CHL    CL1 3153   1.786   3.586   2.830 -0.3397 -0.0144  0.1138
  595CHL    CL2 3154   1.609   3.761   2.995  0.3779 -0.1600  0.3878
  595CHL      H 3155   1.585   3.711   2.754  2.1140 -0.9488 -2.2223
  596CHL     CL 3156   4.366   0.508   1.692  0.0997  0.3812 -0.0446
  596CHL      C 3157   4.280   0.611   1.821 -0.9451  0.4256  0.0261
  596CHL    CL1 3158   4.109   0.641   1.777  0.2210  0.4700  0.0879
  596CHL    CL2 3159   4.306   0.535   1.987  0.0416 -0.1172  0.3924
  596CHL      H 3160   4.327   0.710   1.823  0.7242 -0.3147 -0.7781
  597CHL     CL 3161   0.749   1.098   2.595  0.6163  0.2126  0.2542
  597CHL      C 3162   0.757   0.949   2.684  0.4064  0.4453 -0.1726
  597CHL    CL1 3163   0.774   0.987   2.860  0.6606 -0.5369  0.6806
  597CHL    CL2 3164   0.607   0.848   2.653  0.0130  0.0523 -0.4316
  597CHL      H 3165   0.849   0.897   2.655  0.2461 -1.3066  2.1340
  598CHL     CL 3166   3.098   2.220   1.347  0.4707 -0.3029 -0.1545
  598CHL      C 3167   3.093   2.298   1.507  0.3312 -0.1632 -0.1944
  598CHL    CL1 3168   3.077   2.176   1.648  0.1337  0.4986 -0.1060
  598CHL    CL2 3169   3.242   2.418   1.516  0.1406 -0.1667 -0.1973
  598CHL      H 3170   3.003   2.361   1.507  1.6177  1.7614  0.4402
  599CHL     CL 3171   3.265   3.089   1.613 -0.0726  0.2314 -0.1444
  599CHL      C 3172   3.426   3.053   1.680 -0.0214 -0.3746  0.5073
  599CHL    CL1 3173   3.434   3.135   1.843  0.1792 -0.1104 -0.3265
  599CHL    CL2 3174   3.449   2.878   1.700 -0.0798 -0.4297  0.1454
  599CHL      H 3175   3.498   3.093   1.608  0.2388 -0.5119  0.6906
  600CHL     CL 3176   4.354   0.416   0.008 -0.0093  0.2222 -0.1061
  600CHL      C 3177   4.298   0.519   0.149 -0.7112  0.5229  0.1312
  600CHL    CL1 3178   4.123   0.569   0.130 -0.4124 -0.4735 -0.2402
  600CHL    CL2 3179   4.317   0.425   0.308 -0.8182 -0.4456  0.0220
  600CHL      H 3180   4.351   0.614   0.153  1.4568 -0.5674 -1.0960
  601CHL     CL 3181   3.535   3.983   0.453  0.2297 -0.3666  0.1702
  601CHL      C 3182   3.487   3.910   0.608 -0.6359 -0.1033  0.2765
  601CHL    CL1 3183   3.310   3.911   0.609 -0.3180 -0.0713 -0.2817
  601CHL    CL2 3184   3.560   3.747   0.629 -0.1933  0.5764  0.5665
  601CHL      H 3185   3.529   3.973   0.687  1.1296 -0.7208 -0.1249
  602CHL     CL 3186   2.593   1.591   4.008  0.2897 -0.0352  0.0654
  602CHL      C 3187   2.461   1.537   3.890 -0.3935 -0.3017  0.3369
  602CHL    CL1 3188   2.325   1.466   3.978  0.2177  0.0096 -0.0865
  602CHL    CL2 3189   2.428   1.673   3.789  0.2018 -0.1339  0.4249
  602CHL      H 3190   2.513   1.461   3.832 -0.0287  1.0572 -1.2053
  603CHL     CL 3191   3.159   3.671   2.536  0.4506  0.2187 -0.0833
  603CHL      C 3192   3.153   3.746   2.373  0.2580 -0.2297  0.0602
  603CHL    CL1 3193   3.019   3.865   2.357  0.0268  0.2425 -0.0574
  603CHL    CL2 3194   3.314   3.823   2.327 -0.0335 -0.0266 -0.2749
  603CHL      H 3195   3.128   3.666   2.302  0.5291  1.3866 -1.9182
  604CHL     CL 3196   1.134   0.915   2.881 -0.0742  0.4820 -0.5338
  604CHL      C 3197   1.242   0.973   3.016  0.1059  0.2258 -0.2100
  604CHL    CL1 3198   1.254   0.840   3.137  0.1600  0.3370  0.1390
  604CHL    CL2 3199   1.397   1.016   2.944  0.1238  0.5512 -0.0379
  604CHL      H 3200   1.196   1.063   3.058  0.6912  0.9232 -1.0192
  605CHL     CL 3201   4.007   1.042   3.482 -0.2179 -0.4053  0.0293
  605CHL      C 3202   4.049   0.877   3.466  0.4877  0.0925  0.1503
  605CHL    CL1 3203   4.110   0.795   3.609  0.1032 -0.1727 -0.2224
  605CHL    CL2 3204   3.918   0.783   3.391  0.0393 -0.2845 -0.0783
  605CHL      H 3205   4.132   0.860   3.396  0.1340 -1.4865  0.0798
  606CHL     CL 3206   3.588   2.121   3.875  0.3547 -0.1151  0.1526
  606CHL      C 3207   3.680   2.046   3.750 -0.0791 -0.4053 -0.4002
  606CHL    CL1 3208   3.844   2.056   3.810  0.1664  0.8360 -0.1366
  606CHL    CL2 3209   3.616   1.874   3.737  0.0678  0.1239 -0.0699
  606CHL      H 3210   3.670   2.108   3.660 -0.3500  2.0707  1.2355
  607CHL     CL 3211   4.044   0.276   1.102  0.0063 -0.1211 -0.2901
  607CHL      C 3212   3.888   0.270   1.197  0.3262  0.2309  0.4285
  607CHL    CL1 3213   3.768   0.356   1.090  0.0684  0.2259 -0.3074
  607CHL    CL2 3214   3.811   0.105   1.212 -0.0025 -0.1368 -0.0324
  607CHL      H 3215   3.903   0.317   1.295  1.5958 -0.0561  0.3926
  608CHL     CL 3216   1.171   3.606   0.076 -0.3563  0.3423 -0.2907
  608CHL      C 3217   1.269   3.671   0.205 -0.0169  0.1072 -0.7137
  608CHL    CL1 3218   1.196   3.816   0.276  0.0696 -0.1654  0.0585
  608CHL    CL2 3219   1.289   3.533   0.315  0.2229 -0.4142 -0.1420
  608CHL      H 3220   1.366   3.694   0.161 -0.3041  0.0386 -1.3966
  609CHL     CL 3221   2.540   4.369   3.766 -0.3297  0.3487 -0.2760
  609CHL      C 3222   2.398   4.468   3.834 -0.3108 -0.0262  0.4668
  609CHL    CL1 3223   2.348   4.409   4.000 -0.0266  0.0137  0.1857
  609CHL    CL2 3224   2.442   4.646   3.820  0.4175  0.5836  0.0869
  609CHL      H 3225   2.316   4.453   3.762  0.3925  0.4455 -0.4514
  610CL      CL 3226   3.455   1.201   3.165  0.0629 -0.1876  0.0764
   4.40450   4.40450   4.40450
