; nspe_7_1_GMX.top created by acpype (v: 2023.10.27) on Tue Apr  8 12:38:59 2025

[ atomtypes ]
;name   bond_type     mass     charge   ptype   sigma         epsilon       Amb
 n        n           0.00000  0.00000   A     3.18086e-01   6.84502e-01 ; 1.79  0.1636
 c3       c3          0.00000  0.00000   A     3.39771e-01   4.51035e-01 ; 1.91  0.1078
 ca       ca          0.00000  0.00000   A     3.31521e-01   4.13379e-01 ; 1.86  0.0988
 c        c           0.00000  0.00000   A     3.31521e-01   4.13379e-01 ; 1.86  0.0988
 o        o           0.00000  0.00000   A     3.04812e-01   6.12119e-01 ; 1.71  0.1463
 hn       hn          0.00000  0.00000   A     1.10650e-01   4.18400e-02 ; 0.62  0.0100
 h1       h1          0.00000  0.00000   A     2.42200e-01   8.70272e-02 ; 1.36  0.0208
 hc       hc          0.00000  0.00000   A     2.60018e-01   8.70272e-02 ; 1.46  0.0208
 ha       ha          0.00000  0.00000   A     2.62548e-01   6.73624e-02 ; 1.47  0.0161
 cl       cl          0.00000  0.00000   A     3.46595e-01   1.10374e+00 ; ;1.95  0.2638
 c3       c3          0.00000  0.00000   A     3.39771e-01   4.51035e-01 ; ;1.91  0.1078
 h3       h3          0.00000  0.00000   A     2.06564e-01   8.70272e-02 ; ;1.16  0.0208

[ moleculetype ]
;name            nrexcl
 nspe_7_1         3

[ atoms ]
;   nr  type  resi  res  atom  cgnr     charge      mass       ; qtot   bond_type
     1    n     1   H02     N    1     0.121200     14.01000 ; qtot 0.121
     2   c3     1   H02    C1    2     0.149100     12.01000 ; qtot 0.270
     3   c3     1   H02    C2    3    -0.133700     12.01000 ; qtot 0.137
     4   ca     1   H02    C3    4     0.114800     12.01000 ; qtot 0.251
     5   ca     1   H02    C4    5    -0.250900     12.01000 ; qtot 0.001
     6   ca     1   H02    C5    6     0.009300     12.01000 ; qtot 0.010
     7   ca     1   H02    C6    7    -0.126100     12.01000 ; qtot -0.116
     8   ca     1   H02    C7    8     0.009300     12.01000 ; qtot -0.107
     9   ca     1   H02    C8    9    -0.250900     12.01000 ; qtot -0.358
    10   c3     1   H02    CA   10    -0.294700     12.01000 ; qtot -0.653
    11    c     1   H02     C   11     0.869500     12.01000 ; qtot 0.217
    12    o     1   H02     O   12    -0.605000     16.00000 ; qtot -0.388
    13   hn     1   H02    H1   13     0.161100      1.00800 ; qtot -0.227
    14   hn     1   H02    H2   14     0.161100      1.00800 ; qtot -0.066
    15   h1     1   H02    H3   15     0.048400      1.00800 ; qtot -0.017
    16   hc     1   H02    H4   16     0.059400      1.00800 ; qtot 0.042
    17   hc     1   H02    H5   17     0.059400      1.00800 ; qtot 0.101
    18   hc     1   H02    H6   18     0.059400      1.00800 ; qtot 0.161
    19   ha     1   H02    H7   19     0.136200      1.00800 ; qtot 0.297
    20   ha     1   H02    H8   20     0.104600      1.00800 ; qtot 0.402
    21   ha     1   H02    H9   21     0.129100      1.00800 ; qtot 0.531
    22   ha     1   H02   H10   22     0.104600      1.00800 ; qtot 0.635
    23   ha     1   H02   H11   23     0.136200      1.00800 ; qtot 0.771
    24   h1     1   H02   H12   24     0.114300      1.00800 ; qtot 0.886
    25   h1     1   H02   H13   25     0.114300      1.00800 ; qtot 1.000
    26    n     2   R02     N   26    -0.367800     14.01000 ; qtot 0.632
    27   c3     2   R02    C1   27     0.436900     12.01000 ; qtot 1.069
    28   h1     2   R02    H1   28    -0.054200      1.00800 ; qtot 1.015
    29   c3     2   R02    C2   29    -0.102500     12.01000 ; qtot 0.912
    30   hc     2   R02    H2   30     0.009300      1.00800 ; qtot 0.922
    31   hc     2   R02    H3   31     0.009300      1.00800 ; qtot 0.931
    32   hc     2   R02    H4   32     0.009300      1.00800 ; qtot 0.940
    33   ca     2   R02    C3   33     0.079300     12.01000 ; qtot 1.020
    34   ca     2   R02    C4   34    -0.221800     12.01000 ; qtot 0.798
    35   ha     2   R02    H5   35     0.103000      1.00800 ; qtot 0.901
    36   ca     2   R02    C5   36    -0.015200     12.01000 ; qtot 0.886
    37   ha     2   R02    H6   37     0.077700      1.00800 ; qtot 0.963
    38   ca     2   R02    C6   38    -0.172300     12.01000 ; qtot 0.791
    39   ha     2   R02    H7   39     0.106600      1.00800 ; qtot 0.898
    40   ca     2   R02    C7   40    -0.015200     12.01000 ; qtot 0.882
    41   ha     2   R02    H8   41     0.077700      1.00800 ; qtot 0.960
    42   ca     2   R02    C8   42    -0.221800     12.01000 ; qtot 0.738
    43   ha     2   R02    H9   43     0.103000      1.00800 ; qtot 0.841
    44   c3     2   R02    CA   44     0.078400     12.01000 ; qtot 0.920
    45   h1     2   R02   H10   45     0.022800      1.00800 ; qtot 0.943
    46   h1     2   R02   H11   46     0.022800      1.00800 ; qtot 0.965
    47    c     2   R02     C   47     0.578800     12.01000 ; qtot 1.544
    48    o     2   R02     O   48    -0.544100     16.00000 ; qtot 1.000
    49    n     3   R02     N   49    -0.367800     14.01000 ; qtot 0.632
    50   c3     3   R02    C1   50     0.436900     12.01000 ; qtot 1.069
    51   h1     3   R02    H1   51    -0.054200      1.00800 ; qtot 1.015
    52   c3     3   R02    C2   52    -0.102500     12.01000 ; qtot 0.912
    53   hc     3   R02    H2   53     0.009300      1.00800 ; qtot 0.922
    54   hc     3   R02    H3   54     0.009300      1.00800 ; qtot 0.931
    55   hc     3   R02    H4   55     0.009300      1.00800 ; qtot 0.940
    56   ca     3   R02    C3   56     0.079300     12.01000 ; qtot 1.020
    57   ca     3   R02    C4   57    -0.221800     12.01000 ; qtot 0.798
    58   ha     3   R02    H5   58     0.103000      1.00800 ; qtot 0.901
    59   ca     3   R02    C5   59    -0.015200     12.01000 ; qtot 0.886
    60   ha     3   R02    H6   60     0.077700      1.00800 ; qtot 0.963
    61   ca     3   R02    C6   61    -0.172300     12.01000 ; qtot 0.791
    62   ha     3   R02    H7   62     0.106600      1.00800 ; qtot 0.898
    63   ca     3   R02    C7   63    -0.015200     12.01000 ; qtot 0.882
    64   ha     3   R02    H8   64     0.077700      1.00800 ; qtot 0.960
    65   ca     3   R02    C8   65    -0.221800     12.01000 ; qtot 0.738
    66   ha     3   R02    H9   66     0.103000      1.00800 ; qtot 0.841
    67   c3     3   R02    CA   67     0.078400     12.01000 ; qtot 0.920
    68   h1     3   R02   H10   68     0.022800      1.00800 ; qtot 0.943
    69   h1     3   R02   H11   69     0.022800      1.00800 ; qtot 0.965
    70    c     3   R02     C   70     0.578800     12.01000 ; qtot 1.544
    71    o     3   R02     O   71    -0.544100     16.00000 ; qtot 1.000
    72    n     4   R02     N   72    -0.367800     14.01000 ; qtot 0.632
    73   c3     4   R02    C1   73     0.436900     12.01000 ; qtot 1.069
    74   h1     4   R02    H1   74    -0.054200      1.00800 ; qtot 1.015
    75   c3     4   R02    C2   75    -0.102500     12.01000 ; qtot 0.912
    76   hc     4   R02    H2   76     0.009300      1.00800 ; qtot 0.922
    77   hc     4   R02    H3   77     0.009300      1.00800 ; qtot 0.931
    78   hc     4   R02    H4   78     0.009300      1.00800 ; qtot 0.940
    79   ca     4   R02    C3   79     0.079300     12.01000 ; qtot 1.020
    80   ca     4   R02    C4   80    -0.221800     12.01000 ; qtot 0.798
    81   ha     4   R02    H5   81     0.103000      1.00800 ; qtot 0.901
    82   ca     4   R02    C5   82    -0.015200     12.01000 ; qtot 0.886
    83   ha     4   R02    H6   83     0.077700      1.00800 ; qtot 0.963
    84   ca     4   R02    C6   84    -0.172300     12.01000 ; qtot 0.791
    85   ha     4   R02    H7   85     0.106600      1.00800 ; qtot 0.898
    86   ca     4   R02    C7   86    -0.015200     12.01000 ; qtot 0.882
    87   ha     4   R02    H8   87     0.077700      1.00800 ; qtot 0.960
    88   ca     4   R02    C8   88    -0.221800     12.01000 ; qtot 0.738
    89   ha     4   R02    H9   89     0.103000      1.00800 ; qtot 0.841
    90   c3     4   R02    CA   90     0.078400     12.01000 ; qtot 0.920
    91   h1     4   R02   H10   91     0.022800      1.00800 ; qtot 0.943
    92   h1     4   R02   H11   92     0.022800      1.00800 ; qtot 0.965
    93    c     4   R02     C   93     0.578800     12.01000 ; qtot 1.544
    94    o     4   R02     O   94    -0.544100     16.00000 ; qtot 1.000
    95    n     5   R02     N   95    -0.367800     14.01000 ; qtot 0.632
    96   c3     5   R02    C1   96     0.436900     12.01000 ; qtot 1.069
    97   h1     5   R02    H1   97    -0.054200      1.00800 ; qtot 1.015
    98   c3     5   R02    C2   98    -0.102500     12.01000 ; qtot 0.912
    99   hc     5   R02    H2   99     0.009300      1.00800 ; qtot 0.922
   100   hc     5   R02    H3  100     0.009300      1.00800 ; qtot 0.931
   101   hc     5   R02    H4  101     0.009300      1.00800 ; qtot 0.940
   102   ca     5   R02    C3  102     0.079300     12.01000 ; qtot 1.020
   103   ca     5   R02    C4  103    -0.221800     12.01000 ; qtot 0.798
   104   ha     5   R02    H5  104     0.103000      1.00800 ; qtot 0.901
   105   ca     5   R02    C5  105    -0.015200     12.01000 ; qtot 0.886
   106   ha     5   R02    H6  106     0.077700      1.00800 ; qtot 0.963
   107   ca     5   R02    C6  107    -0.172300     12.01000 ; qtot 0.791
   108   ha     5   R02    H7  108     0.106600      1.00800 ; qtot 0.898
   109   ca     5   R02    C7  109    -0.015200     12.01000 ; qtot 0.882
   110   ha     5   R02    H8  110     0.077700      1.00800 ; qtot 0.960
   111   ca     5   R02    C8  111    -0.221800     12.01000 ; qtot 0.738
   112   ha     5   R02    H9  112     0.103000      1.00800 ; qtot 0.841
   113   c3     5   R02    CA  113     0.078400     12.01000 ; qtot 0.920
   114   h1     5   R02   H10  114     0.022800      1.00800 ; qtot 0.943
   115   h1     5   R02   H11  115     0.022800      1.00800 ; qtot 0.965
   116    c     5   R02     C  116     0.578800     12.01000 ; qtot 1.544
   117    o     5   R02     O  117    -0.544100     16.00000 ; qtot 1.000
   118    n     6   R02     N  118    -0.367800     14.01000 ; qtot 0.632
   119   c3     6   R02    C1  119     0.436900     12.01000 ; qtot 1.069
   120   h1     6   R02    H1  120    -0.054200      1.00800 ; qtot 1.015
   121   c3     6   R02    C2  121    -0.102500     12.01000 ; qtot 0.912
   122   hc     6   R02    H2  122     0.009300      1.00800 ; qtot 0.922
   123   hc     6   R02    H3  123     0.009300      1.00800 ; qtot 0.931
   124   hc     6   R02    H4  124     0.009300      1.00800 ; qtot 0.940
   125   ca     6   R02    C3  125     0.079300     12.01000 ; qtot 1.020
   126   ca     6   R02    C4  126    -0.221800     12.01000 ; qtot 0.798
   127   ha     6   R02    H5  127     0.103000      1.00800 ; qtot 0.901
   128   ca     6   R02    C5  128    -0.015200     12.01000 ; qtot 0.886
   129   ha     6   R02    H6  129     0.077700      1.00800 ; qtot 0.963
   130   ca     6   R02    C6  130    -0.172300     12.01000 ; qtot 0.791
   131   ha     6   R02    H7  131     0.106600      1.00800 ; qtot 0.898
   132   ca     6   R02    C7  132    -0.015200     12.01000 ; qtot 0.882
   133   ha     6   R02    H8  133     0.077700      1.00800 ; qtot 0.960
   134   ca     6   R02    C8  134    -0.221800     12.01000 ; qtot 0.738
   135   ha     6   R02    H9  135     0.103000      1.00800 ; qtot 0.841
   136   c3     6   R02    CA  136     0.078400     12.01000 ; qtot 0.920
   137   h1     6   R02   H10  137     0.022800      1.00800 ; qtot 0.943
   138   h1     6   R02   H11  138     0.022800      1.00800 ; qtot 0.965
   139    c     6   R02     C  139     0.578800     12.01000 ; qtot 1.544
   140    o     6   R02     O  140    -0.544100     16.00000 ; qtot 1.000
   141    n     7   R02     N  141    -0.367800     14.01000 ; qtot 0.632
   142   c3     7   R02    C1  142     0.436900     12.01000 ; qtot 1.069
   143   h1     7   R02    H1  143    -0.054200      1.00800 ; qtot 1.015
   144   c3     7   R02    C2  144    -0.102500     12.01000 ; qtot 0.912
   145   hc     7   R02    H2  145     0.009300      1.00800 ; qtot 0.922
   146   hc     7   R02    H3  146     0.009300      1.00800 ; qtot 0.931
   147   hc     7   R02    H4  147     0.009300      1.00800 ; qtot 0.940
   148   ca     7   R02    C3  148     0.079300     12.01000 ; qtot 1.020
   149   ca     7   R02    C4  149    -0.221800     12.01000 ; qtot 0.798
   150   ha     7   R02    H5  150     0.103000      1.00800 ; qtot 0.901
   151   ca     7   R02    C5  151    -0.015200     12.01000 ; qtot 0.886
   152   ha     7   R02    H6  152     0.077700      1.00800 ; qtot 0.963
   153   ca     7   R02    C6  153    -0.172300     12.01000 ; qtot 0.791
   154   ha     7   R02    H7  154     0.106600      1.00800 ; qtot 0.898
   155   ca     7   R02    C7  155    -0.015200     12.01000 ; qtot 0.882
   156   ha     7   R02    H8  156     0.077700      1.00800 ; qtot 0.960
   157   ca     7   R02    C8  157    -0.221800     12.01000 ; qtot 0.738
   158   ha     7   R02    H9  158     0.103000      1.00800 ; qtot 0.841
   159   c3     7   R02    CA  159     0.078400     12.01000 ; qtot 0.920
   160   h1     7   R02   H10  160     0.022800      1.00800 ; qtot 0.943
   161   h1     7   R02   H11  161     0.022800      1.00800 ; qtot 0.965
   162    c     7   R02     C  162     0.578800     12.01000 ; qtot 1.544
   163    o     7   R02     O  163    -0.544100     16.00000 ; qtot 1.000
   164    n     8   NH2     N  164    -0.606400     14.01000 ; qtot 0.394
   165   hn     8   NH2    H1  165     0.303200      1.00800 ; qtot 0.697
   166   hn     8   NH2    H2  166     0.303200      1.00800 ; qtot 1.000

[ bonds ]
;   ai     aj funct   r             k
     1      2   1    1.4620e-01    2.2075e+05 ;      N - C1    
     1     10   1    1.4620e-01    2.2075e+05 ;      N - CA    
     1     13   1    1.0130e-01    4.4124e+05 ;      N - H1    
     1     14   1    1.0130e-01    4.4124e+05 ;      N - H2    
     2      3   1    1.5380e-01    1.9456e+05 ;     C1 - C2    
     2      4   1    1.5160e-01    2.0945e+05 ;     C1 - C3    
     2     15   1    1.0970e-01    3.1455e+05 ;     C1 - H3    
     3     16   1    1.0970e-01    3.1455e+05 ;     C2 - H4    
     3     17   1    1.0970e-01    3.1455e+05 ;     C2 - H5    
     3     18   1    1.0970e-01    3.1455e+05 ;     C2 - H6    
     4      5   1    1.3980e-01    3.1681e+05 ;     C3 - C4    
     4      9   1    1.3980e-01    3.1681e+05 ;     C3 - C8    
     5      6   1    1.3980e-01    3.1681e+05 ;     C4 - C5    
     5     19   1    1.0860e-01    3.3112e+05 ;     C4 - H7    
     6      7   1    1.3980e-01    3.1681e+05 ;     C5 - C6    
     6     20   1    1.0860e-01    3.3112e+05 ;     C5 - H8    
     7      8   1    1.3980e-01    3.1681e+05 ;     C6 - C7    
     7     21   1    1.0860e-01    3.3112e+05 ;     C6 - H9    
     8      9   1    1.3980e-01    3.1681e+05 ;     C7 - C8    
     8     22   1    1.0860e-01    3.3112e+05 ;     C7 - H10   
     9     23   1    1.0860e-01    3.3112e+05 ;     C8 - H11   
    10     11   1    1.5240e-01    2.0351e+05 ;     CA - C     
    10     24   1    1.0970e-01    3.1455e+05 ;     CA - H12   
    10     25   1    1.0970e-01    3.1455e+05 ;     CA - H13   
    11     12   1    1.2180e-01    5.4610e+05 ;      C - O     
    11     26   1    1.3790e-01    2.9807e+05 ;      C - N     
    26     27   1    1.4620e-01    2.2075e+05 ;      N - C1    
    26     44   1    1.4620e-01    2.2075e+05 ;      N - CA    
    27     28   1    1.0970e-01    3.1455e+05 ;     C1 - H1    
    27     29   1    1.5380e-01    1.9456e+05 ;     C1 - C2    
    27     33   1    1.5160e-01    2.0945e+05 ;     C1 - C3    
    29     30   1    1.0970e-01    3.1455e+05 ;     C2 - H2    
    29     31   1    1.0970e-01    3.1455e+05 ;     C2 - H3    
    29     32   1    1.0970e-01    3.1455e+05 ;     C2 - H4    
    33     34   1    1.3980e-01    3.1681e+05 ;     C3 - C4    
    33     42   1    1.3980e-01    3.1681e+05 ;     C3 - C8    
    34     35   1    1.0860e-01    3.3112e+05 ;     C4 - H5    
    34     36   1    1.3980e-01    3.1681e+05 ;     C4 - C5    
    36     37   1    1.0860e-01    3.3112e+05 ;     C5 - H6    
    36     38   1    1.3980e-01    3.1681e+05 ;     C5 - C6    
    38     39   1    1.0860e-01    3.3112e+05 ;     C6 - H7    
    38     40   1    1.3980e-01    3.1681e+05 ;     C6 - C7    
    40     41   1    1.0860e-01    3.3112e+05 ;     C7 - H8    
    40     42   1    1.3980e-01    3.1681e+05 ;     C7 - C8    
    42     43   1    1.0860e-01    3.3112e+05 ;     C8 - H9    
    44     45   1    1.0970e-01    3.1455e+05 ;     CA - H10   
    44     46   1    1.0970e-01    3.1455e+05 ;     CA - H11   
    44     47   1    1.5240e-01    2.0351e+05 ;     CA - C     
    47     48   1    1.2180e-01    5.4610e+05 ;      C - O     
    47     49   1    1.3790e-01    2.9807e+05 ;      C - N     
    49     50   1    1.4620e-01    2.2075e+05 ;      N - C1    
    49     67   1    1.4620e-01    2.2075e+05 ;      N - CA    
    50     51   1    1.0970e-01    3.1455e+05 ;     C1 - H1    
    50     52   1    1.5380e-01    1.9456e+05 ;     C1 - C2    
    50     56   1    1.5160e-01    2.0945e+05 ;     C1 - C3    
    52     53   1    1.0970e-01    3.1455e+05 ;     C2 - H2    
    52     54   1    1.0970e-01    3.1455e+05 ;     C2 - H3    
    52     55   1    1.0970e-01    3.1455e+05 ;     C2 - H4    
    56     57   1    1.3980e-01    3.1681e+05 ;     C3 - C4    
    56     65   1    1.3980e-01    3.1681e+05 ;     C3 - C8    
    57     58   1    1.0860e-01    3.3112e+05 ;     C4 - H5    
    57     59   1    1.3980e-01    3.1681e+05 ;     C4 - C5    
    59     60   1    1.0860e-01    3.3112e+05 ;     C5 - H6    
    59     61   1    1.3980e-01    3.1681e+05 ;     C5 - C6    
    61     62   1    1.0860e-01    3.3112e+05 ;     C6 - H7    
    61     63   1    1.3980e-01    3.1681e+05 ;     C6 - C7    
    63     64   1    1.0860e-01    3.3112e+05 ;     C7 - H8    
    63     65   1    1.3980e-01    3.1681e+05 ;     C7 - C8    
    65     66   1    1.0860e-01    3.3112e+05 ;     C8 - H9    
    67     68   1    1.0970e-01    3.1455e+05 ;     CA - H10   
    67     69   1    1.0970e-01    3.1455e+05 ;     CA - H11   
    67     70   1    1.5240e-01    2.0351e+05 ;     CA - C     
    70     71   1    1.2180e-01    5.4610e+05 ;      C - O     
    70     72   1    1.3790e-01    2.9807e+05 ;      C - N     
    72     73   1    1.4620e-01    2.2075e+05 ;      N - C1    
    72     90   1    1.4620e-01    2.2075e+05 ;      N - CA    
    73     74   1    1.0970e-01    3.1455e+05 ;     C1 - H1    
    73     75   1    1.5380e-01    1.9456e+05 ;     C1 - C2    
    73     79   1    1.5160e-01    2.0945e+05 ;     C1 - C3    
    75     76   1    1.0970e-01    3.1455e+05 ;     C2 - H2    
    75     77   1    1.0970e-01    3.1455e+05 ;     C2 - H3    
    75     78   1    1.0970e-01    3.1455e+05 ;     C2 - H4    
    79     80   1    1.3980e-01    3.1681e+05 ;     C3 - C4    
    79     88   1    1.3980e-01    3.1681e+05 ;     C3 - C8    
    80     81   1    1.0860e-01    3.3112e+05 ;     C4 - H5    
    80     82   1    1.3980e-01    3.1681e+05 ;     C4 - C5    
    82     83   1    1.0860e-01    3.3112e+05 ;     C5 - H6    
    82     84   1    1.3980e-01    3.1681e+05 ;     C5 - C6    
    84     85   1    1.0860e-01    3.3112e+05 ;     C6 - H7    
    84     86   1    1.3980e-01    3.1681e+05 ;     C6 - C7    
    86     87   1    1.0860e-01    3.3112e+05 ;     C7 - H8    
    86     88   1    1.3980e-01    3.1681e+05 ;     C7 - C8    
    88     89   1    1.0860e-01    3.3112e+05 ;     C8 - H9    
    90     91   1    1.0970e-01    3.1455e+05 ;     CA - H10   
    90     92   1    1.0970e-01    3.1455e+05 ;     CA - H11   
    90     93   1    1.5240e-01    2.0351e+05 ;     CA - C     
    93     94   1    1.2180e-01    5.4610e+05 ;      C - O     
    93     95   1    1.3790e-01    2.9807e+05 ;      C - N     
    95     96   1    1.4620e-01    2.2075e+05 ;      N - C1    
    95    113   1    1.4620e-01    2.2075e+05 ;      N - CA    
    96     97   1    1.0970e-01    3.1455e+05 ;     C1 - H1    
    96     98   1    1.5380e-01    1.9456e+05 ;     C1 - C2    
    96    102   1    1.5160e-01    2.0945e+05 ;     C1 - C3    
    98     99   1    1.0970e-01    3.1455e+05 ;     C2 - H2    
    98    100   1    1.0970e-01    3.1455e+05 ;     C2 - H3    
    98    101   1    1.0970e-01    3.1455e+05 ;     C2 - H4    
   102    103   1    1.3980e-01    3.1681e+05 ;     C3 - C4    
   102    111   1    1.3980e-01    3.1681e+05 ;     C3 - C8    
   103    104   1    1.0860e-01    3.3112e+05 ;     C4 - H5    
   103    105   1    1.3980e-01    3.1681e+05 ;     C4 - C5    
   105    106   1    1.0860e-01    3.3112e+05 ;     C5 - H6    
   105    107   1    1.3980e-01    3.1681e+05 ;     C5 - C6    
   107    108   1    1.0860e-01    3.3112e+05 ;     C6 - H7    
   107    109   1    1.3980e-01    3.1681e+05 ;     C6 - C7    
   109    110   1    1.0860e-01    3.3112e+05 ;     C7 - H8    
   109    111   1    1.3980e-01    3.1681e+05 ;     C7 - C8    
   111    112   1    1.0860e-01    3.3112e+05 ;     C8 - H9    
   113    114   1    1.0970e-01    3.1455e+05 ;     CA - H10   
   113    115   1    1.0970e-01    3.1455e+05 ;     CA - H11   
   113    116   1    1.5240e-01    2.0351e+05 ;     CA - C     
   116    117   1    1.2180e-01    5.4610e+05 ;      C - O     
   116    118   1    1.3790e-01    2.9807e+05 ;      C - N     
   118    119   1    1.4620e-01    2.2075e+05 ;      N - C1    
   118    136   1    1.4620e-01    2.2075e+05 ;      N - CA    
   119    120   1    1.0970e-01    3.1455e+05 ;     C1 - H1    
   119    121   1    1.5380e-01    1.9456e+05 ;     C1 - C2    
   119    125   1    1.5160e-01    2.0945e+05 ;     C1 - C3    
   121    122   1    1.0970e-01    3.1455e+05 ;     C2 - H2    
   121    123   1    1.0970e-01    3.1455e+05 ;     C2 - H3    
   121    124   1    1.0970e-01    3.1455e+05 ;     C2 - H4    
   125    126   1    1.3980e-01    3.1681e+05 ;     C3 - C4    
   125    134   1    1.3980e-01    3.1681e+05 ;     C3 - C8    
   126    127   1    1.0860e-01    3.3112e+05 ;     C4 - H5    
   126    128   1    1.3980e-01    3.1681e+05 ;     C4 - C5    
   128    129   1    1.0860e-01    3.3112e+05 ;     C5 - H6    
   128    130   1    1.3980e-01    3.1681e+05 ;     C5 - C6    
   130    131   1    1.0860e-01    3.3112e+05 ;     C6 - H7    
   130    132   1    1.3980e-01    3.1681e+05 ;     C6 - C7    
   132    133   1    1.0860e-01    3.3112e+05 ;     C7 - H8    
   132    134   1    1.3980e-01    3.1681e+05 ;     C7 - C8    
   134    135   1    1.0860e-01    3.3112e+05 ;     C8 - H9    
   136    137   1    1.0970e-01    3.1455e+05 ;     CA - H10   
   136    138   1    1.0970e-01    3.1455e+05 ;     CA - H11   
   136    139   1    1.5240e-01    2.0351e+05 ;     CA - C     
   139    140   1    1.2180e-01    5.4610e+05 ;      C - O     
   139    141   1    1.3790e-01    2.9807e+05 ;      C - N     
   141    142   1    1.4620e-01    2.2075e+05 ;      N - C1    
   141    159   1    1.4620e-01    2.2075e+05 ;      N - CA    
   142    143   1    1.0970e-01    3.1455e+05 ;     C1 - H1    
   142    144   1    1.5380e-01    1.9456e+05 ;     C1 - C2    
   142    148   1    1.5160e-01    2.0945e+05 ;     C1 - C3    
   144    145   1    1.0970e-01    3.1455e+05 ;     C2 - H2    
   144    146   1    1.0970e-01    3.1455e+05 ;     C2 - H3    
   144    147   1    1.0970e-01    3.1455e+05 ;     C2 - H4    
   148    149   1    1.3980e-01    3.1681e+05 ;     C3 - C4    
   148    157   1    1.3980e-01    3.1681e+05 ;     C3 - C8    
   149    150   1    1.0860e-01    3.3112e+05 ;     C4 - H5    
   149    151   1    1.3980e-01    3.1681e+05 ;     C4 - C5    
   151    152   1    1.0860e-01    3.3112e+05 ;     C5 - H6    
   151    153   1    1.3980e-01    3.1681e+05 ;     C5 - C6    
   153    154   1    1.0860e-01    3.3112e+05 ;     C6 - H7    
   153    155   1    1.3980e-01    3.1681e+05 ;     C6 - C7    
   155    156   1    1.0860e-01    3.3112e+05 ;     C7 - H8    
   155    157   1    1.3980e-01    3.1681e+05 ;     C7 - C8    
   157    158   1    1.0860e-01    3.3112e+05 ;     C8 - H9    
   159    160   1    1.0970e-01    3.1455e+05 ;     CA - H10   
   159    161   1    1.0970e-01    3.1455e+05 ;     CA - H11   
   159    162   1    1.5240e-01    2.0351e+05 ;     CA - C     
   162    163   1    1.2180e-01    5.4610e+05 ;      C - O     
   162    164   1    1.3790e-01    2.9807e+05 ;      C - N     
   164    165   1    1.0130e-01    4.4124e+05 ;      N - H1    
   164    166   1    1.0130e-01    4.4124e+05 ;      N - H2    

[ pairs ]
;   ai     aj    funct
     1      5      1 ;      N - C4    
     1      9      1 ;      N - C8    
     1     12      1 ;      N - O     
     1     16      1 ;      N - H4    
     1     17      1 ;      N - H5    
     1     18      1 ;      N - H6    
     1     26      1 ;      N - N     
     2      6      1 ;     C1 - C5    
     2      8      1 ;     C1 - C7    
     2     11      1 ;     C1 - C     
     2     19      1 ;     C1 - H7    
     2     23      1 ;     C1 - H11   
     2     24      1 ;     C1 - H12   
     2     25      1 ;     C1 - H13   
     3      5      1 ;     C2 - C4    
     3      9      1 ;     C2 - C8    
     4      7      1 ;     C3 - C6    
     4     16      1 ;     C3 - H4    
     4     17      1 ;     C3 - H5    
     4     18      1 ;     C3 - H6    
     4     20      1 ;     C3 - H8    
     4     22      1 ;     C3 - H10   
     5      8      1 ;     C4 - C7    
     5     15      1 ;     C4 - H3    
     5     21      1 ;     C4 - H9    
     5     23      1 ;     C4 - H11   
     6      9      1 ;     C5 - C8    
     6     22      1 ;     C5 - H10   
     7     19      1 ;     C6 - H7    
     7     23      1 ;     C6 - H11   
     8     20      1 ;     C7 - H8    
     9     15      1 ;     C8 - H3    
     9     19      1 ;     C8 - H7    
     9     21      1 ;     C8 - H9    
    10      3      1 ;     CA - C2    
    10      4      1 ;     CA - C3    
    10     15      1 ;     CA - H3    
    10     27      1 ;     CA - C1    
    10     44      1 ;     CA - CA    
    11     28      1 ;      C - H1    
    11     29      1 ;      C - C2    
    11     33      1 ;      C - C3    
    11     45      1 ;      C - H10   
    11     46      1 ;      C - H11   
    11     47      1 ;      C - C     
    12     24      1 ;      O - H12   
    12     25      1 ;      O - H13   
    12     27      1 ;      O - C1    
    12     44      1 ;      O - CA    
    13      3      1 ;     H1 - C2    
    13      4      1 ;     H1 - C3    
    13     11      1 ;     H1 - C     
    13     15      1 ;     H1 - H3    
    13     24      1 ;     H1 - H12   
    13     25      1 ;     H1 - H13   
    14      3      1 ;     H2 - C2    
    14      4      1 ;     H2 - C3    
    14     11      1 ;     H2 - C     
    14     15      1 ;     H2 - H3    
    14     24      1 ;     H2 - H12   
    14     25      1 ;     H2 - H13   
    15     16      1 ;     H3 - H4    
    15     17      1 ;     H3 - H5    
    15     18      1 ;     H3 - H6    
    19     20      1 ;     H7 - H8    
    20     21      1 ;     H8 - H9    
    21     22      1 ;     H9 - H10   
    22     23      1 ;    H10 - H11   
    24     26      1 ;    H12 - N     
    25     26      1 ;    H13 - N     
    26     30      1 ;      N - H2    
    26     31      1 ;      N - H3    
    26     32      1 ;      N - H4    
    26     34      1 ;      N - C4    
    26     42      1 ;      N - C8    
    26     48      1 ;      N - O     
    26     49      1 ;      N - N     
    27     35      1 ;     C1 - H5    
    27     36      1 ;     C1 - C5    
    27     40      1 ;     C1 - C7    
    27     43      1 ;     C1 - H9    
    27     45      1 ;     C1 - H10   
    27     46      1 ;     C1 - H11   
    27     47      1 ;     C1 - C     
    28     30      1 ;     H1 - H2    
    28     31      1 ;     H1 - H3    
    28     32      1 ;     H1 - H4    
    28     34      1 ;     H1 - C4    
    28     42      1 ;     H1 - C8    
    28     44      1 ;     H1 - CA    
    29     34      1 ;     C2 - C4    
    29     42      1 ;     C2 - C8    
    29     44      1 ;     C2 - CA    
    30     33      1 ;     H2 - C3    
    31     33      1 ;     H3 - C3    
    32     33      1 ;     H4 - C3    
    33     37      1 ;     C3 - H6    
    33     38      1 ;     C3 - C6    
    33     41      1 ;     C3 - H8    
    33     44      1 ;     C3 - CA    
    34     39      1 ;     C4 - H7    
    34     40      1 ;     C4 - C7    
    34     43      1 ;     C4 - H9    
    35     37      1 ;     H5 - H6    
    35     38      1 ;     H5 - C6    
    35     42      1 ;     H5 - C8    
    36     41      1 ;     C5 - H8    
    36     42      1 ;     C5 - C8    
    37     39      1 ;     H6 - H7    
    37     40      1 ;     H6 - C7    
    38     43      1 ;     C6 - H9    
    39     41      1 ;     H7 - H8    
    39     42      1 ;     H7 - C8    
    41     43      1 ;     H8 - H9    
    44     50      1 ;     CA - C1    
    44     67      1 ;     CA - CA    
    45     48      1 ;    H10 - O     
    45     49      1 ;    H10 - N     
    46     48      1 ;    H11 - O     
    46     49      1 ;    H11 - N     
    47     51      1 ;      C - H1    
    47     52      1 ;      C - C2    
    47     56      1 ;      C - C3    
    47     68      1 ;      C - H10   
    47     69      1 ;      C - H11   
    47     70      1 ;      C - C     
    48     50      1 ;      O - C1    
    48     67      1 ;      O - CA    
    49     53      1 ;      N - H2    
    49     54      1 ;      N - H3    
    49     55      1 ;      N - H4    
    49     57      1 ;      N - C4    
    49     65      1 ;      N - C8    
    49     71      1 ;      N - O     
    49     72      1 ;      N - N     
    50     58      1 ;     C1 - H5    
    50     59      1 ;     C1 - C5    
    50     63      1 ;     C1 - C7    
    50     66      1 ;     C1 - H9    
    50     68      1 ;     C1 - H10   
    50     69      1 ;     C1 - H11   
    50     70      1 ;     C1 - C     
    51     53      1 ;     H1 - H2    
    51     54      1 ;     H1 - H3    
    51     55      1 ;     H1 - H4    
    51     57      1 ;     H1 - C4    
    51     65      1 ;     H1 - C8    
    51     67      1 ;     H1 - CA    
    52     57      1 ;     C2 - C4    
    52     65      1 ;     C2 - C8    
    52     67      1 ;     C2 - CA    
    53     56      1 ;     H2 - C3    
    54     56      1 ;     H3 - C3    
    55     56      1 ;     H4 - C3    
    56     60      1 ;     C3 - H6    
    56     61      1 ;     C3 - C6    
    56     64      1 ;     C3 - H8    
    56     67      1 ;     C3 - CA    
    57     62      1 ;     C4 - H7    
    57     63      1 ;     C4 - C7    
    57     66      1 ;     C4 - H9    
    58     60      1 ;     H5 - H6    
    58     61      1 ;     H5 - C6    
    58     65      1 ;     H5 - C8    
    59     64      1 ;     C5 - H8    
    59     65      1 ;     C5 - C8    
    60     62      1 ;     H6 - H7    
    60     63      1 ;     H6 - C7    
    61     66      1 ;     C6 - H9    
    62     64      1 ;     H7 - H8    
    62     65      1 ;     H7 - C8    
    64     66      1 ;     H8 - H9    
    67     73      1 ;     CA - C1    
    67     90      1 ;     CA - CA    
    68     71      1 ;    H10 - O     
    68     72      1 ;    H10 - N     
    69     71      1 ;    H11 - O     
    69     72      1 ;    H11 - N     
    70     74      1 ;      C - H1    
    70     75      1 ;      C - C2    
    70     79      1 ;      C - C3    
    70     91      1 ;      C - H10   
    70     92      1 ;      C - H11   
    70     93      1 ;      C - C     
    71     73      1 ;      O - C1    
    71     90      1 ;      O - CA    
    72     76      1 ;      N - H2    
    72     77      1 ;      N - H3    
    72     78      1 ;      N - H4    
    72     80      1 ;      N - C4    
    72     88      1 ;      N - C8    
    72     94      1 ;      N - O     
    72     95      1 ;      N - N     
    73     81      1 ;     C1 - H5    
    73     82      1 ;     C1 - C5    
    73     86      1 ;     C1 - C7    
    73     89      1 ;     C1 - H9    
    73     91      1 ;     C1 - H10   
    73     92      1 ;     C1 - H11   
    73     93      1 ;     C1 - C     
    74     76      1 ;     H1 - H2    
    74     77      1 ;     H1 - H3    
    74     78      1 ;     H1 - H4    
    74     80      1 ;     H1 - C4    
    74     88      1 ;     H1 - C8    
    74     90      1 ;     H1 - CA    
    75     80      1 ;     C2 - C4    
    75     88      1 ;     C2 - C8    
    75     90      1 ;     C2 - CA    
    76     79      1 ;     H2 - C3    
    77     79      1 ;     H3 - C3    
    78     79      1 ;     H4 - C3    
    79     83      1 ;     C3 - H6    
    79     84      1 ;     C3 - C6    
    79     87      1 ;     C3 - H8    
    79     90      1 ;     C3 - CA    
    80     85      1 ;     C4 - H7    
    80     86      1 ;     C4 - C7    
    80     89      1 ;     C4 - H9    
    81     83      1 ;     H5 - H6    
    81     84      1 ;     H5 - C6    
    81     88      1 ;     H5 - C8    
    82     87      1 ;     C5 - H8    
    82     88      1 ;     C5 - C8    
    83     85      1 ;     H6 - H7    
    83     86      1 ;     H6 - C7    
    84     89      1 ;     C6 - H9    
    85     87      1 ;     H7 - H8    
    85     88      1 ;     H7 - C8    
    87     89      1 ;     H8 - H9    
    90     96      1 ;     CA - C1    
    90    113      1 ;     CA - CA    
    91     94      1 ;    H10 - O     
    91     95      1 ;    H10 - N     
    92     94      1 ;    H11 - O     
    92     95      1 ;    H11 - N     
    93     97      1 ;      C - H1    
    93     98      1 ;      C - C2    
    93    102      1 ;      C - C3    
    93    114      1 ;      C - H10   
    93    115      1 ;      C - H11   
    93    116      1 ;      C - C     
    94     96      1 ;      O - C1    
    94    113      1 ;      O - CA    
    95     99      1 ;      N - H2    
    95    100      1 ;      N - H3    
    95    101      1 ;      N - H4    
    95    103      1 ;      N - C4    
    95    111      1 ;      N - C8    
    95    117      1 ;      N - O     
    95    118      1 ;      N - N     
    96    104      1 ;     C1 - H5    
    96    105      1 ;     C1 - C5    
    96    109      1 ;     C1 - C7    
    96    112      1 ;     C1 - H9    
    96    114      1 ;     C1 - H10   
    96    115      1 ;     C1 - H11   
    96    116      1 ;     C1 - C     
    97     99      1 ;     H1 - H2    
    97    100      1 ;     H1 - H3    
    97    101      1 ;     H1 - H4    
    97    103      1 ;     H1 - C4    
    97    111      1 ;     H1 - C8    
    97    113      1 ;     H1 - CA    
    98    103      1 ;     C2 - C4    
    98    111      1 ;     C2 - C8    
    98    113      1 ;     C2 - CA    
    99    102      1 ;     H2 - C3    
   100    102      1 ;     H3 - C3    
   101    102      1 ;     H4 - C3    
   102    106      1 ;     C3 - H6    
   102    107      1 ;     C3 - C6    
   102    110      1 ;     C3 - H8    
   102    113      1 ;     C3 - CA    
   103    108      1 ;     C4 - H7    
   103    109      1 ;     C4 - C7    
   103    112      1 ;     C4 - H9    
   104    106      1 ;     H5 - H6    
   104    107      1 ;     H5 - C6    
   104    111      1 ;     H5 - C8    
   105    110      1 ;     C5 - H8    
   105    111      1 ;     C5 - C8    
   106    108      1 ;     H6 - H7    
   106    109      1 ;     H6 - C7    
   107    112      1 ;     C6 - H9    
   108    110      1 ;     H7 - H8    
   108    111      1 ;     H7 - C8    
   110    112      1 ;     H8 - H9    
   113    119      1 ;     CA - C1    
   113    136      1 ;     CA - CA    
   114    117      1 ;    H10 - O     
   114    118      1 ;    H10 - N     
   115    117      1 ;    H11 - O     
   115    118      1 ;    H11 - N     
   116    120      1 ;      C - H1    
   116    121      1 ;      C - C2    
   116    125      1 ;      C - C3    
   116    137      1 ;      C - H10   
   116    138      1 ;      C - H11   
   116    139      1 ;      C - C     
   117    119      1 ;      O - C1    
   117    136      1 ;      O - CA    
   118    122      1 ;      N - H2    
   118    123      1 ;      N - H3    
   118    124      1 ;      N - H4    
   118    126      1 ;      N - C4    
   118    134      1 ;      N - C8    
   118    140      1 ;      N - O     
   118    141      1 ;      N - N     
   119    127      1 ;     C1 - H5    
   119    128      1 ;     C1 - C5    
   119    132      1 ;     C1 - C7    
   119    135      1 ;     C1 - H9    
   119    137      1 ;     C1 - H10   
   119    138      1 ;     C1 - H11   
   119    139      1 ;     C1 - C     
   120    122      1 ;     H1 - H2    
   120    123      1 ;     H1 - H3    
   120    124      1 ;     H1 - H4    
   120    126      1 ;     H1 - C4    
   120    134      1 ;     H1 - C8    
   120    136      1 ;     H1 - CA    
   121    126      1 ;     C2 - C4    
   121    134      1 ;     C2 - C8    
   121    136      1 ;     C2 - CA    
   122    125      1 ;     H2 - C3    
   123    125      1 ;     H3 - C3    
   124    125      1 ;     H4 - C3    
   125    129      1 ;     C3 - H6    
   125    130      1 ;     C3 - C6    
   125    133      1 ;     C3 - H8    
   125    136      1 ;     C3 - CA    
   126    131      1 ;     C4 - H7    
   126    132      1 ;     C4 - C7    
   126    135      1 ;     C4 - H9    
   127    129      1 ;     H5 - H6    
   127    130      1 ;     H5 - C6    
   127    134      1 ;     H5 - C8    
   128    133      1 ;     C5 - H8    
   128    134      1 ;     C5 - C8    
   129    131      1 ;     H6 - H7    
   129    132      1 ;     H6 - C7    
   130    135      1 ;     C6 - H9    
   131    133      1 ;     H7 - H8    
   131    134      1 ;     H7 - C8    
   133    135      1 ;     H8 - H9    
   136    142      1 ;     CA - C1    
   136    159      1 ;     CA - CA    
   137    140      1 ;    H10 - O     
   137    141      1 ;    H10 - N     
   138    140      1 ;    H11 - O     
   138    141      1 ;    H11 - N     
   139    143      1 ;      C - H1    
   139    144      1 ;      C - C2    
   139    148      1 ;      C - C3    
   139    160      1 ;      C - H10   
   139    161      1 ;      C - H11   
   139    162      1 ;      C - C     
   140    142      1 ;      O - C1    
   140    159      1 ;      O - CA    
   141    145      1 ;      N - H2    
   141    146      1 ;      N - H3    
   141    147      1 ;      N - H4    
   141    149      1 ;      N - C4    
   141    157      1 ;      N - C8    
   141    163      1 ;      N - O     
   141    164      1 ;      N - N     
   142    150      1 ;     C1 - H5    
   142    151      1 ;     C1 - C5    
   142    155      1 ;     C1 - C7    
   142    158      1 ;     C1 - H9    
   142    160      1 ;     C1 - H10   
   142    161      1 ;     C1 - H11   
   142    162      1 ;     C1 - C     
   143    145      1 ;     H1 - H2    
   143    146      1 ;     H1 - H3    
   143    147      1 ;     H1 - H4    
   143    149      1 ;     H1 - C4    
   143    157      1 ;     H1 - C8    
   143    159      1 ;     H1 - CA    
   144    149      1 ;     C2 - C4    
   144    157      1 ;     C2 - C8    
   144    159      1 ;     C2 - CA    
   145    148      1 ;     H2 - C3    
   146    148      1 ;     H3 - C3    
   147    148      1 ;     H4 - C3    
   148    152      1 ;     C3 - H6    
   148    153      1 ;     C3 - C6    
   148    156      1 ;     C3 - H8    
   148    159      1 ;     C3 - CA    
   149    154      1 ;     C4 - H7    
   149    155      1 ;     C4 - C7    
   149    158      1 ;     C4 - H9    
   150    152      1 ;     H5 - H6    
   150    153      1 ;     H5 - C6    
   150    157      1 ;     H5 - C8    
   151    156      1 ;     C5 - H8    
   151    157      1 ;     C5 - C8    
   152    154      1 ;     H6 - H7    
   152    155      1 ;     H6 - C7    
   153    158      1 ;     C6 - H9    
   154    156      1 ;     H7 - H8    
   154    157      1 ;     H7 - C8    
   156    158      1 ;     H8 - H9    
   159    165      1 ;     CA - H1    
   159    166      1 ;     CA - H2    
   160    163      1 ;    H10 - O     
   160    164      1 ;    H10 - N     
   161    163      1 ;    H11 - O     
   161    164      1 ;    H11 - N     
   163    165      1 ;      O - H1    
   163    166      1 ;      O - H2    

[ angles ]
;   ai     aj     ak    funct   theta         cth
     1      2      3      1    1.1161e+02    6.9622e+02 ;      N - C1     - C2    
     1      2      4      1    1.1238e+02    6.9873e+02 ;      N - C1     - C3    
     1      2     15      1    1.0888e+02    5.1463e+02 ;      N - C1     - H3    
     1     10     11      1    1.0906e+02    7.0710e+02 ;      N - CA     - C     
     1     10     24      1    1.0888e+02    5.1463e+02 ;      N - CA     - H12   
     1     10     25      1    1.0888e+02    5.1463e+02 ;      N - CA     - H13   
     2      1     10      1    1.1564e+02    5.4308e+02 ;     C1 - N      - CA    
     2      1     13      1    1.1768e+02    3.8576e+02 ;     C1 - N      - H1    
     2      1     14      1    1.1768e+02    3.8576e+02 ;     C1 - N      - H2    
     2      3     16      1    1.0980e+02    3.9162e+02 ;     C1 - C2     - H4    
     2      3     17      1    1.0980e+02    3.9162e+02 ;     C1 - C2     - H5    
     2      3     18      1    1.0980e+02    3.9162e+02 ;     C1 - C2     - H6    
     2      4      5      1    1.2077e+02    5.4894e+02 ;     C1 - C3     - C4    
     2      4      9      1    1.2077e+02    5.4894e+02 ;     C1 - C3     - C8    
     3      2      4      1    1.1207e+02    5.4559e+02 ;     C2 - C1     - C3    
     3      2     15      1    1.0956e+02    3.9246e+02 ;     C2 - C1     - H3    
     4      2     15      1    1.0956e+02    3.9748e+02 ;     C3 - C1     - H3    
     4      5      6      1    1.2002e+02    5.7572e+02 ;     C3 - C4     - C5    
     4      5     19      1    1.1988e+02    4.0752e+02 ;     C3 - C4     - H7    
     4      9      8      1    1.2002e+02    5.7572e+02 ;     C3 - C8     - C7    
     4      9     23      1    1.1988e+02    4.0752e+02 ;     C3 - C8     - H11   
     5      4      9      1    1.2002e+02    5.7572e+02 ;     C4 - C3     - C8    
     5      6      7      1    1.2002e+02    5.7572e+02 ;     C4 - C5     - C6    
     5      6     20      1    1.1988e+02    4.0752e+02 ;     C4 - C5     - H8    
     6      5     19      1    1.1988e+02    4.0752e+02 ;     C5 - C4     - H7    
     6      7      8      1    1.2002e+02    5.7572e+02 ;     C5 - C6     - C7    
     6      7     21      1    1.1988e+02    4.0752e+02 ;     C5 - C6     - H9    
     7      6     20      1    1.1988e+02    4.0752e+02 ;     C6 - C5     - H8    
     7      8      9      1    1.2002e+02    5.7572e+02 ;     C6 - C7     - C8    
     7      8     22      1    1.1988e+02    4.0752e+02 ;     C6 - C7     - H10   
     8      7     21      1    1.1988e+02    4.0752e+02 ;     C7 - C6     - H9    
     8      9     23      1    1.1988e+02    4.0752e+02 ;     C7 - C8     - H11   
     9      8     22      1    1.1988e+02    4.0752e+02 ;     C8 - C7     - H10   
    10      1     13      1    1.1768e+02    3.8576e+02 ;     CA - N      - H1    
    10      1     14      1    1.1768e+02    3.8576e+02 ;     CA - N      - H2    
    10     11     12      1    1.2320e+02    7.0793e+02 ;     CA - C      - O     
    10     11     26      1    1.1518e+02    7.0542e+02 ;     CA - C      - N     
    11     10     24      1    1.0822e+02    3.9748e+02 ;      C - CA     - H12   
    11     10     25      1    1.0822e+02    3.9748e+02 ;      C - CA     - H13   
    11     26     27      1    1.2069e+02    5.4643e+02 ;      C - N      - C1    
    11     26     44      1    1.2069e+02    5.4643e+02 ;      C - N      - CA    
    12     11     26      1    1.2305e+02    9.5228e+02 ;      O - C      - N     
    13      1     14      1    1.1795e+02    3.2635e+02 ;     H1 - N      - H2    
    16      3     17      1    1.0758e+02    3.2635e+02 ;     H4 - C2     - H5    
    16      3     18      1    1.0758e+02    3.2635e+02 ;     H4 - C2     - H6    
    17      3     18      1    1.0758e+02    3.2635e+02 ;     H5 - C2     - H6    
    24     10     25      1    1.0846e+02    3.2468e+02 ;    H12 - CA     - H13   
    26     27     28      1    1.0888e+02    5.1463e+02 ;      N - C1     - H1    
    26     27     29      1    1.1161e+02    6.9622e+02 ;      N - C1     - C2    
    26     27     33      1    1.1238e+02    6.9873e+02 ;      N - C1     - C3    
    26     44     45      1    1.0888e+02    5.1463e+02 ;      N - CA     - H10   
    26     44     46      1    1.0888e+02    5.1463e+02 ;      N - CA     - H11   
    26     44     47      1    1.0906e+02    7.0710e+02 ;      N - CA     - C     
    27     26     44      1    1.1564e+02    5.4308e+02 ;     C1 - N      - CA    
    27     29     30      1    1.0980e+02    3.9162e+02 ;     C1 - C2     - H2    
    27     29     31      1    1.0980e+02    3.9162e+02 ;     C1 - C2     - H3    
    27     29     32      1    1.0980e+02    3.9162e+02 ;     C1 - C2     - H4    
    27     33     34      1    1.2077e+02    5.4894e+02 ;     C1 - C3     - C4    
    27     33     42      1    1.2077e+02    5.4894e+02 ;     C1 - C3     - C8    
    28     27     29      1    1.0956e+02    3.9246e+02 ;     H1 - C1     - C2    
    28     27     33      1    1.0956e+02    3.9748e+02 ;     H1 - C1     - C3    
    29     27     33      1    1.1207e+02    5.4559e+02 ;     C2 - C1     - C3    
    30     29     31      1    1.0758e+02    3.2635e+02 ;     H2 - C2     - H3    
    30     29     32      1    1.0758e+02    3.2635e+02 ;     H2 - C2     - H4    
    31     29     32      1    1.0758e+02    3.2635e+02 ;     H3 - C2     - H4    
    33     34     35      1    1.1988e+02    4.0752e+02 ;     C3 - C4     - H5    
    33     34     36      1    1.2002e+02    5.7572e+02 ;     C3 - C4     - C5    
    33     42     40      1    1.2002e+02    5.7572e+02 ;     C3 - C8     - C7    
    33     42     43      1    1.1988e+02    4.0752e+02 ;     C3 - C8     - H9    
    34     33     42      1    1.2002e+02    5.7572e+02 ;     C4 - C3     - C8    
    34     36     37      1    1.1988e+02    4.0752e+02 ;     C4 - C5     - H6    
    34     36     38      1    1.2002e+02    5.7572e+02 ;     C4 - C5     - C6    
    35     34     36      1    1.1988e+02    4.0752e+02 ;     H5 - C4     - C5    
    36     38     39      1    1.1988e+02    4.0752e+02 ;     C5 - C6     - H7    
    36     38     40      1    1.2002e+02    5.7572e+02 ;     C5 - C6     - C7    
    37     36     38      1    1.1988e+02    4.0752e+02 ;     H6 - C5     - C6    
    38     40     41      1    1.1988e+02    4.0752e+02 ;     C6 - C7     - H8    
    38     40     42      1    1.2002e+02    5.7572e+02 ;     C6 - C7     - C8    
    39     38     40      1    1.1988e+02    4.0752e+02 ;     H7 - C6     - C7    
    40     42     43      1    1.1988e+02    4.0752e+02 ;     C7 - C8     - H9    
    41     40     42      1    1.1988e+02    4.0752e+02 ;     H8 - C7     - C8    
    44     47     48      1    1.2320e+02    7.0793e+02 ;     CA - C      - O     
    44     47     49      1    1.1518e+02    7.0542e+02 ;     CA - C      - N     
    45     44     46      1    1.0846e+02    3.2468e+02 ;    H10 - CA     - H11   
    45     44     47      1    1.0822e+02    3.9748e+02 ;    H10 - CA     - C     
    46     44     47      1    1.0822e+02    3.9748e+02 ;    H11 - CA     - C     
    47     49     50      1    1.2069e+02    5.4643e+02 ;      C - N      - C1    
    47     49     67      1    1.2069e+02    5.4643e+02 ;      C - N      - CA    
    48     47     49      1    1.2305e+02    9.5228e+02 ;      O - C      - N     
    49     50     51      1    1.0888e+02    5.1463e+02 ;      N - C1     - H1    
    49     50     52      1    1.1161e+02    6.9622e+02 ;      N - C1     - C2    
    49     50     56      1    1.1238e+02    6.9873e+02 ;      N - C1     - C3    
    49     67     68      1    1.0888e+02    5.1463e+02 ;      N - CA     - H10   
    49     67     69      1    1.0888e+02    5.1463e+02 ;      N - CA     - H11   
    49     67     70      1    1.0906e+02    7.0710e+02 ;      N - CA     - C     
    50     49     67      1    1.1564e+02    5.4308e+02 ;     C1 - N      - CA    
    50     52     53      1    1.0980e+02    3.9162e+02 ;     C1 - C2     - H2    
    50     52     54      1    1.0980e+02    3.9162e+02 ;     C1 - C2     - H3    
    50     52     55      1    1.0980e+02    3.9162e+02 ;     C1 - C2     - H4    
    50     56     57      1    1.2077e+02    5.4894e+02 ;     C1 - C3     - C4    
    50     56     65      1    1.2077e+02    5.4894e+02 ;     C1 - C3     - C8    
    51     50     52      1    1.0956e+02    3.9246e+02 ;     H1 - C1     - C2    
    51     50     56      1    1.0956e+02    3.9748e+02 ;     H1 - C1     - C3    
    52     50     56      1    1.1207e+02    5.4559e+02 ;     C2 - C1     - C3    
    53     52     54      1    1.0758e+02    3.2635e+02 ;     H2 - C2     - H3    
    53     52     55      1    1.0758e+02    3.2635e+02 ;     H2 - C2     - H4    
    54     52     55      1    1.0758e+02    3.2635e+02 ;     H3 - C2     - H4    
    56     57     58      1    1.1988e+02    4.0752e+02 ;     C3 - C4     - H5    
    56     57     59      1    1.2002e+02    5.7572e+02 ;     C3 - C4     - C5    
    56     65     63      1    1.2002e+02    5.7572e+02 ;     C3 - C8     - C7    
    56     65     66      1    1.1988e+02    4.0752e+02 ;     C3 - C8     - H9    
    57     56     65      1    1.2002e+02    5.7572e+02 ;     C4 - C3     - C8    
    57     59     60      1    1.1988e+02    4.0752e+02 ;     C4 - C5     - H6    
    57     59     61      1    1.2002e+02    5.7572e+02 ;     C4 - C5     - C6    
    58     57     59      1    1.1988e+02    4.0752e+02 ;     H5 - C4     - C5    
    59     61     62      1    1.1988e+02    4.0752e+02 ;     C5 - C6     - H7    
    59     61     63      1    1.2002e+02    5.7572e+02 ;     C5 - C6     - C7    
    60     59     61      1    1.1988e+02    4.0752e+02 ;     H6 - C5     - C6    
    61     63     64      1    1.1988e+02    4.0752e+02 ;     C6 - C7     - H8    
    61     63     65      1    1.2002e+02    5.7572e+02 ;     C6 - C7     - C8    
    62     61     63      1    1.1988e+02    4.0752e+02 ;     H7 - C6     - C7    
    63     65     66      1    1.1988e+02    4.0752e+02 ;     C7 - C8     - H9    
    64     63     65      1    1.1988e+02    4.0752e+02 ;     H8 - C7     - C8    
    67     70     71      1    1.2320e+02    7.0793e+02 ;     CA - C      - O     
    67     70     72      1    1.1518e+02    7.0542e+02 ;     CA - C      - N     
    68     67     69      1    1.0846e+02    3.2468e+02 ;    H10 - CA     - H11   
    68     67     70      1    1.0822e+02    3.9748e+02 ;    H10 - CA     - C     
    69     67     70      1    1.0822e+02    3.9748e+02 ;    H11 - CA     - C     
    70     72     73      1    1.2069e+02    5.4643e+02 ;      C - N      - C1    
    70     72     90      1    1.2069e+02    5.4643e+02 ;      C - N      - CA    
    71     70     72      1    1.2305e+02    9.5228e+02 ;      O - C      - N     
    72     73     74      1    1.0888e+02    5.1463e+02 ;      N - C1     - H1    
    72     73     75      1    1.1161e+02    6.9622e+02 ;      N - C1     - C2    
    72     73     79      1    1.1238e+02    6.9873e+02 ;      N - C1     - C3    
    72     90     91      1    1.0888e+02    5.1463e+02 ;      N - CA     - H10   
    72     90     92      1    1.0888e+02    5.1463e+02 ;      N - CA     - H11   
    72     90     93      1    1.0906e+02    7.0710e+02 ;      N - CA     - C     
    73     72     90      1    1.1564e+02    5.4308e+02 ;     C1 - N      - CA    
    73     75     76      1    1.0980e+02    3.9162e+02 ;     C1 - C2     - H2    
    73     75     77      1    1.0980e+02    3.9162e+02 ;     C1 - C2     - H3    
    73     75     78      1    1.0980e+02    3.9162e+02 ;     C1 - C2     - H4    
    73     79     80      1    1.2077e+02    5.4894e+02 ;     C1 - C3     - C4    
    73     79     88      1    1.2077e+02    5.4894e+02 ;     C1 - C3     - C8    
    74     73     75      1    1.0956e+02    3.9246e+02 ;     H1 - C1     - C2    
    74     73     79      1    1.0956e+02    3.9748e+02 ;     H1 - C1     - C3    
    75     73     79      1    1.1207e+02    5.4559e+02 ;     C2 - C1     - C3    
    76     75     77      1    1.0758e+02    3.2635e+02 ;     H2 - C2     - H3    
    76     75     78      1    1.0758e+02    3.2635e+02 ;     H2 - C2     - H4    
    77     75     78      1    1.0758e+02    3.2635e+02 ;     H3 - C2     - H4    
    79     80     81      1    1.1988e+02    4.0752e+02 ;     C3 - C4     - H5    
    79     80     82      1    1.2002e+02    5.7572e+02 ;     C3 - C4     - C5    
    79     88     86      1    1.2002e+02    5.7572e+02 ;     C3 - C8     - C7    
    79     88     89      1    1.1988e+02    4.0752e+02 ;     C3 - C8     - H9    
    80     79     88      1    1.2002e+02    5.7572e+02 ;     C4 - C3     - C8    
    80     82     83      1    1.1988e+02    4.0752e+02 ;     C4 - C5     - H6    
    80     82     84      1    1.2002e+02    5.7572e+02 ;     C4 - C5     - C6    
    81     80     82      1    1.1988e+02    4.0752e+02 ;     H5 - C4     - C5    
    82     84     85      1    1.1988e+02    4.0752e+02 ;     C5 - C6     - H7    
    82     84     86      1    1.2002e+02    5.7572e+02 ;     C5 - C6     - C7    
    83     82     84      1    1.1988e+02    4.0752e+02 ;     H6 - C5     - C6    
    84     86     87      1    1.1988e+02    4.0752e+02 ;     C6 - C7     - H8    
    84     86     88      1    1.2002e+02    5.7572e+02 ;     C6 - C7     - C8    
    85     84     86      1    1.1988e+02    4.0752e+02 ;     H7 - C6     - C7    
    86     88     89      1    1.1988e+02    4.0752e+02 ;     C7 - C8     - H9    
    87     86     88      1    1.1988e+02    4.0752e+02 ;     H8 - C7     - C8    
    90     93     94      1    1.2320e+02    7.0793e+02 ;     CA - C      - O     
    90     93     95      1    1.1518e+02    7.0542e+02 ;     CA - C      - N     
    91     90     92      1    1.0846e+02    3.2468e+02 ;    H10 - CA     - H11   
    91     90     93      1    1.0822e+02    3.9748e+02 ;    H10 - CA     - C     
    92     90     93      1    1.0822e+02    3.9748e+02 ;    H11 - CA     - C     
    93     95     96      1    1.2069e+02    5.4643e+02 ;      C - N      - C1    
    93     95    113      1    1.2069e+02    5.4643e+02 ;      C - N      - CA    
    94     93     95      1    1.2305e+02    9.5228e+02 ;      O - C      - N     
    95     96     97      1    1.0888e+02    5.1463e+02 ;      N - C1     - H1    
    95     96     98      1    1.1161e+02    6.9622e+02 ;      N - C1     - C2    
    95     96    102      1    1.1238e+02    6.9873e+02 ;      N - C1     - C3    
    95    113    114      1    1.0888e+02    5.1463e+02 ;      N - CA     - H10   
    95    113    115      1    1.0888e+02    5.1463e+02 ;      N - CA     - H11   
    95    113    116      1    1.0906e+02    7.0710e+02 ;      N - CA     - C     
    96     95    113      1    1.1564e+02    5.4308e+02 ;     C1 - N      - CA    
    96     98     99      1    1.0980e+02    3.9162e+02 ;     C1 - C2     - H2    
    96     98    100      1    1.0980e+02    3.9162e+02 ;     C1 - C2     - H3    
    96     98    101      1    1.0980e+02    3.9162e+02 ;     C1 - C2     - H4    
    96    102    103      1    1.2077e+02    5.4894e+02 ;     C1 - C3     - C4    
    96    102    111      1    1.2077e+02    5.4894e+02 ;     C1 - C3     - C8    
    97     96     98      1    1.0956e+02    3.9246e+02 ;     H1 - C1     - C2    
    97     96    102      1    1.0956e+02    3.9748e+02 ;     H1 - C1     - C3    
    98     96    102      1    1.1207e+02    5.4559e+02 ;     C2 - C1     - C3    
    99     98    100      1    1.0758e+02    3.2635e+02 ;     H2 - C2     - H3    
    99     98    101      1    1.0758e+02    3.2635e+02 ;     H2 - C2     - H4    
   100     98    101      1    1.0758e+02    3.2635e+02 ;     H3 - C2     - H4    
   102    103    104      1    1.1988e+02    4.0752e+02 ;     C3 - C4     - H5    
   102    103    105      1    1.2002e+02    5.7572e+02 ;     C3 - C4     - C5    
   102    111    109      1    1.2002e+02    5.7572e+02 ;     C3 - C8     - C7    
   102    111    112      1    1.1988e+02    4.0752e+02 ;     C3 - C8     - H9    
   103    102    111      1    1.2002e+02    5.7572e+02 ;     C4 - C3     - C8    
   103    105    106      1    1.1988e+02    4.0752e+02 ;     C4 - C5     - H6    
   103    105    107      1    1.2002e+02    5.7572e+02 ;     C4 - C5     - C6    
   104    103    105      1    1.1988e+02    4.0752e+02 ;     H5 - C4     - C5    
   105    107    108      1    1.1988e+02    4.0752e+02 ;     C5 - C6     - H7    
   105    107    109      1    1.2002e+02    5.7572e+02 ;     C5 - C6     - C7    
   106    105    107      1    1.1988e+02    4.0752e+02 ;     H6 - C5     - C6    
   107    109    110      1    1.1988e+02    4.0752e+02 ;     C6 - C7     - H8    
   107    109    111      1    1.2002e+02    5.7572e+02 ;     C6 - C7     - C8    
   108    107    109      1    1.1988e+02    4.0752e+02 ;     H7 - C6     - C7    
   109    111    112      1    1.1988e+02    4.0752e+02 ;     C7 - C8     - H9    
   110    109    111      1    1.1988e+02    4.0752e+02 ;     H8 - C7     - C8    
   113    116    117      1    1.2320e+02    7.0793e+02 ;     CA - C      - O     
   113    116    118      1    1.1518e+02    7.0542e+02 ;     CA - C      - N     
   114    113    115      1    1.0846e+02    3.2468e+02 ;    H10 - CA     - H11   
   114    113    116      1    1.0822e+02    3.9748e+02 ;    H10 - CA     - C     
   115    113    116      1    1.0822e+02    3.9748e+02 ;    H11 - CA     - C     
   116    118    119      1    1.2069e+02    5.4643e+02 ;      C - N      - C1    
   116    118    136      1    1.2069e+02    5.4643e+02 ;      C - N      - CA    
   117    116    118      1    1.2305e+02    9.5228e+02 ;      O - C      - N     
   118    119    120      1    1.0888e+02    5.1463e+02 ;      N - C1     - H1    
   118    119    121      1    1.1161e+02    6.9622e+02 ;      N - C1     - C2    
   118    119    125      1    1.1238e+02    6.9873e+02 ;      N - C1     - C3    
   118    136    137      1    1.0888e+02    5.1463e+02 ;      N - CA     - H10   
   118    136    138      1    1.0888e+02    5.1463e+02 ;      N - CA     - H11   
   118    136    139      1    1.0906e+02    7.0710e+02 ;      N - CA     - C     
   119    118    136      1    1.1564e+02    5.4308e+02 ;     C1 - N      - CA    
   119    121    122      1    1.0980e+02    3.9162e+02 ;     C1 - C2     - H2    
   119    121    123      1    1.0980e+02    3.9162e+02 ;     C1 - C2     - H3    
   119    121    124      1    1.0980e+02    3.9162e+02 ;     C1 - C2     - H4    
   119    125    126      1    1.2077e+02    5.4894e+02 ;     C1 - C3     - C4    
   119    125    134      1    1.2077e+02    5.4894e+02 ;     C1 - C3     - C8    
   120    119    121      1    1.0956e+02    3.9246e+02 ;     H1 - C1     - C2    
   120    119    125      1    1.0956e+02    3.9748e+02 ;     H1 - C1     - C3    
   121    119    125      1    1.1207e+02    5.4559e+02 ;     C2 - C1     - C3    
   122    121    123      1    1.0758e+02    3.2635e+02 ;     H2 - C2     - H3    
   122    121    124      1    1.0758e+02    3.2635e+02 ;     H2 - C2     - H4    
   123    121    124      1    1.0758e+02    3.2635e+02 ;     H3 - C2     - H4    
   125    126    127      1    1.1988e+02    4.0752e+02 ;     C3 - C4     - H5    
   125    126    128      1    1.2002e+02    5.7572e+02 ;     C3 - C4     - C5    
   125    134    132      1    1.2002e+02    5.7572e+02 ;     C3 - C8     - C7    
   125    134    135      1    1.1988e+02    4.0752e+02 ;     C3 - C8     - H9    
   126    125    134      1    1.2002e+02    5.7572e+02 ;     C4 - C3     - C8    
   126    128    129      1    1.1988e+02    4.0752e+02 ;     C4 - C5     - H6    
   126    128    130      1    1.2002e+02    5.7572e+02 ;     C4 - C5     - C6    
   127    126    128      1    1.1988e+02    4.0752e+02 ;     H5 - C4     - C5    
   128    130    131      1    1.1988e+02    4.0752e+02 ;     C5 - C6     - H7    
   128    130    132      1    1.2002e+02    5.7572e+02 ;     C5 - C6     - C7    
   129    128    130      1    1.1988e+02    4.0752e+02 ;     H6 - C5     - C6    
   130    132    133      1    1.1988e+02    4.0752e+02 ;     C6 - C7     - H8    
   130    132    134      1    1.2002e+02    5.7572e+02 ;     C6 - C7     - C8    
   131    130    132      1    1.1988e+02    4.0752e+02 ;     H7 - C6     - C7    
   132    134    135      1    1.1988e+02    4.0752e+02 ;     C7 - C8     - H9    
   133    132    134      1    1.1988e+02    4.0752e+02 ;     H8 - C7     - C8    
   136    139    140      1    1.2320e+02    7.0793e+02 ;     CA - C      - O     
   136    139    141      1    1.1518e+02    7.0542e+02 ;     CA - C      - N     
   137    136    138      1    1.0846e+02    3.2468e+02 ;    H10 - CA     - H11   
   137    136    139      1    1.0822e+02    3.9748e+02 ;    H10 - CA     - C     
   138    136    139      1    1.0822e+02    3.9748e+02 ;    H11 - CA     - C     
   139    141    142      1    1.2069e+02    5.4643e+02 ;      C - N      - C1    
   139    141    159      1    1.2069e+02    5.4643e+02 ;      C - N      - CA    
   140    139    141      1    1.2305e+02    9.5228e+02 ;      O - C      - N     
   141    142    143      1    1.0888e+02    5.1463e+02 ;      N - C1     - H1    
   141    142    144      1    1.1161e+02    6.9622e+02 ;      N - C1     - C2    
   141    142    148      1    1.1238e+02    6.9873e+02 ;      N - C1     - C3    
   141    159    160      1    1.0888e+02    5.1463e+02 ;      N - CA     - H10   
   141    159    161      1    1.0888e+02    5.1463e+02 ;      N - CA     - H11   
   141    159    162      1    1.0906e+02    7.0710e+02 ;      N - CA     - C     
   142    141    159      1    1.1564e+02    5.4308e+02 ;     C1 - N      - CA    
   142    144    145      1    1.0980e+02    3.9162e+02 ;     C1 - C2     - H2    
   142    144    146      1    1.0980e+02    3.9162e+02 ;     C1 - C2     - H3    
   142    144    147      1    1.0980e+02    3.9162e+02 ;     C1 - C2     - H4    
   142    148    149      1    1.2077e+02    5.4894e+02 ;     C1 - C3     - C4    
   142    148    157      1    1.2077e+02    5.4894e+02 ;     C1 - C3     - C8    
   143    142    144      1    1.0956e+02    3.9246e+02 ;     H1 - C1     - C2    
   143    142    148      1    1.0956e+02    3.9748e+02 ;     H1 - C1     - C3    
   144    142    148      1    1.1207e+02    5.4559e+02 ;     C2 - C1     - C3    
   145    144    146      1    1.0758e+02    3.2635e+02 ;     H2 - C2     - H3    
   145    144    147      1    1.0758e+02    3.2635e+02 ;     H2 - C2     - H4    
   146    144    147      1    1.0758e+02    3.2635e+02 ;     H3 - C2     - H4    
   148    149    150      1    1.1988e+02    4.0752e+02 ;     C3 - C4     - H5    
   148    149    151      1    1.2002e+02    5.7572e+02 ;     C3 - C4     - C5    
   148    157    155      1    1.2002e+02    5.7572e+02 ;     C3 - C8     - C7    
   148    157    158      1    1.1988e+02    4.0752e+02 ;     C3 - C8     - H9    
   149    148    157      1    1.2002e+02    5.7572e+02 ;     C4 - C3     - C8    
   149    151    152      1    1.1988e+02    4.0752e+02 ;     C4 - C5     - H6    
   149    151    153      1    1.2002e+02    5.7572e+02 ;     C4 - C5     - C6    
   150    149    151      1    1.1988e+02    4.0752e+02 ;     H5 - C4     - C5    
   151    153    154      1    1.1988e+02    4.0752e+02 ;     C5 - C6     - H7    
   151    153    155      1    1.2002e+02    5.7572e+02 ;     C5 - C6     - C7    
   152    151    153      1    1.1988e+02    4.0752e+02 ;     H6 - C5     - C6    
   153    155    156      1    1.1988e+02    4.0752e+02 ;     C6 - C7     - H8    
   153    155    157      1    1.2002e+02    5.7572e+02 ;     C6 - C7     - C8    
   154    153    155      1    1.1988e+02    4.0752e+02 ;     H7 - C6     - C7    
   155    157    158      1    1.1988e+02    4.0752e+02 ;     C7 - C8     - H9    
   156    155    157      1    1.1988e+02    4.0752e+02 ;     H8 - C7     - C8    
   159    162    163      1    1.2320e+02    7.0793e+02 ;     CA - C      - O     
   159    162    164      1    1.1518e+02    7.0542e+02 ;     CA - C      - N     
   160    159    161      1    1.0846e+02    3.2468e+02 ;    H10 - CA     - H11   
   160    159    162      1    1.0822e+02    3.9748e+02 ;    H10 - CA     - C     
   161    159    162      1    1.0822e+02    3.9748e+02 ;    H11 - CA     - C     
   162    164    165      1    1.1755e+02    4.0752e+02 ;      C - N      - H1    
   162    164    166      1    1.1755e+02    4.0752e+02 ;      C - N      - H2    
   163    162    164      1    1.2305e+02    9.5228e+02 ;      O - C      - N     
   165    164    166      1    1.1795e+02    3.2635e+02 ;     H1 - N      - H2    

[ dihedrals ] ; propers
; for gromacs 4.5 or higher, using funct 9
;    i      j      k      l   func   phase     kd      pn
     1      2      3     16      9     0.00   0.68090   3 ;      N-    C1-    C2-    H4
     1      2      3     17      9     0.00   0.68090   3 ;      N-    C1-    C2-    H5
     1      2      3     18      9     0.00   0.68090   3 ;      N-    C1-    C2-    H6
     1      2      4      5      9     0.00  -1.25491   2 ;      N-    C1-    C3-    C4
     1      2      4      9      9     0.00  -1.25491   2 ;      N-    C1-    C3-    C8
     1     10     11     12      9   180.00   0.91161   2 ;      N-    CA-     C-     O
     1     10     11     26      9   180.00   6.88318   2 ;      N-    CA-     C-     N
     1     10     11     26      9   180.00  -1.08550   1 ;      N-    CA-     C-     N
     2      1     10     11      9     0.00   2.48304   2 ;     C1-     N-    CA-     C
     2      1     10     24      9     0.00   2.48304   2 ;     C1-     N-    CA-   H12
     2      1     10     25      9     0.00   2.48304   2 ;     C1-     N-    CA-   H13
     2      4      5      6      9   180.00  13.73867   2 ;     C1-    C3-    C4-    C5
     2      4      5     19      9   180.00  13.73867   2 ;     C1-    C3-    C4-    H7
     2      4      9      8      9   180.00  13.73867   2 ;     C1-    C3-    C8-    C7
     2      4      9     23      9   180.00  13.73867   2 ;     C1-    C3-    C8-   H11
     3      2      4      5      9   180.00  -0.20401   2 ;     C2-    C1-    C3-    C4
     3      2      4      9      9   180.00  -0.20401   2 ;     C2-    C1-    C3-    C8
     4      2      3     16      9     0.00   0.68090   3 ;     C3-    C1-    C2-    H4
     4      2      3     17      9     0.00   0.68090   3 ;     C3-    C1-    C2-    H5
     4      2      3     18      9     0.00   0.68090   3 ;     C3-    C1-    C2-    H6
     4      5      6      7      9   180.00  13.73867   2 ;     C3-    C4-    C5-    C6
     4      5      6     20      9   180.00  13.73867   2 ;     C3-    C4-    C5-    H8
     4      9      8      7      9   180.00  13.73867   2 ;     C3-    C8-    C7-    C6
     4      9      8     22      9   180.00  13.73867   2 ;     C3-    C8-    C7-   H10
     5      4      2     15      9     0.00  -1.25491   2 ;     C4-    C3-    C1-    H3
     5      4      9      8      9   180.00  13.73867   2 ;     C4-    C3-    C8-    C7
     5      4      9     23      9   180.00  13.73867   2 ;     C4-    C3-    C8-   H11
     5      6      7      8      9   180.00  13.73867   2 ;     C4-    C5-    C6-    C7
     5      6      7     21      9   180.00  13.73867   2 ;     C4-    C5-    C6-    H9
     6      5      4      9      9   180.00  13.73867   2 ;     C5-    C4-    C3-    C8
     6      7      8      9      9   180.00  13.73867   2 ;     C5-    C6-    C7-    C8
     6      7      8     22      9   180.00  13.73867   2 ;     C5-    C6-    C7-   H10
     7      6      5     19      9   180.00  13.73867   2 ;     C6-    C5-    C4-    H7
     7      8      9     23      9   180.00  13.73867   2 ;     C6-    C7-    C8-   H11
     8      7      6     20      9   180.00  13.73867   2 ;     C7-    C6-    C5-    H8
     9      4      2     15      9     0.00  -1.25491   2 ;     C8-    C3-    C1-    H3
     9      4      5     19      9   180.00  13.73867   2 ;     C8-    C3-    C4-    H7
     9      8      7     21      9   180.00  13.73867   2 ;     C8-    C7-    C6-    H9
    10      1      2      3      9     0.00   2.48304   2 ;     CA-     N-    C1-    C2
    10      1      2      4      9     0.00   2.48304   2 ;     CA-     N-    C1-    C3
    10      1      2     15      9     0.00   2.48304   2 ;     CA-     N-    C1-    H3
    10     11     26     27      9     0.00   6.02458   1 ;     CA-     C-     N-    C1
    10     11     26     27      9   180.00  10.82505   2  180.00  6.49503   2;     CA-     C-     N-    C1
    10     11     26     44      9     0.00   6.02458   1 ;     CA-     C-     N-    CA
    10     11     26     44      9   180.00  10.82505   2  180.00  6.49503   2;     CA-     C-     N-    CA
    11     26     27     28      9   180.00  -1.43327   2 ;      C-     N-    C1-    H1
    11     26     27     29      9     0.00   0.71128   3 ;      C-     N-    C1-    C2
    11     26     27     29      9   180.00   0.41840   4 ;      C-     N-    C1-    C2
    11     26     27     29      9   180.00   4.26768   1 ;      C-     N-    C1-    C2
    11     26     27     33      9     0.00   2.48304   2 ;      C-     N-    C1-    C3
    11     26     44     45      9   180.00  -1.43327   2 ;      C-     N-    CA-   H10
    11     26     44     46      9   180.00  -1.43327   2 ;      C-     N-    CA-   H11
    11     26     44     47      9     0.00   4.17814   1 ;      C-     N-    CA-     C
    11     26     44     47      9   180.00  -0.71454   2 ;      C-     N-    CA-     C
    12     11     10     24      9     0.00  -3.54962   1 ;      O-     C-    CA-   H12
    12     11     10     24      9   180.00  -1.52348   3 ;      O-     C-    CA-   H12
    12     11     10     25      9     0.00  -3.54962   1 ;      O-     C-    CA-   H13
    12     11     10     25      9   180.00  -1.52348   3 ;      O-     C-    CA-   H13
    12     11     26     27      9   180.00  16.86851   2 ;      O-     C-     N-    C1
    12     11     26     44      9   180.00  16.86851   2 ;      O-     C-     N-    CA
    13      1      2      3      9     0.00   2.48304   2 ;     H1-     N-    C1-    C2
    13      1      2      4      9     0.00   2.48304   2 ;     H1-     N-    C1-    C3
    13      1      2     15      9     0.00   2.48304   2 ;     H1-     N-    C1-    H3
    13      1     10     11      9     0.00   2.48304   2 ;     H1-     N-    CA-     C
    13      1     10     24      9     0.00   2.48304   2 ;     H1-     N-    CA-   H12
    13      1     10     25      9     0.00   2.48304   2 ;     H1-     N-    CA-   H13
    14      1      2      3      9     0.00   2.48304   2 ;     H2-     N-    C1-    C2
    14      1      2      4      9     0.00   2.48304   2 ;     H2-     N-    C1-    C3
    14      1      2     15      9     0.00   2.48304   2 ;     H2-     N-    C1-    H3
    14      1     10     11      9     0.00   2.48304   2 ;     H2-     N-    CA-     C
    14      1     10     24      9     0.00   2.48304   2 ;     H2-     N-    CA-   H12
    14      1     10     25      9     0.00   2.48304   2 ;     H2-     N-    CA-   H13
    15      2      3     16      9     0.00   0.68090   3 ;     H3-    C1-    C2-    H4
    15      2      3     17      9     0.00   0.68090   3 ;     H3-    C1-    C2-    H5
    15      2      3     18      9     0.00   0.68090   3 ;     H3-    C1-    C2-    H6
    19      5      6     20      9   180.00  13.73867   2 ;     H7-    C4-    C5-    H8
    20      6      7     21      9   180.00  13.73867   2 ;     H8-    C5-    C6-    H9
    21      7      8     22      9   180.00  13.73867   2 ;     H9-    C6-    C7-   H10
    22      8      9     23      9   180.00  13.73867   2 ;    H10-    C7-    C8-   H11
    24     10     11     26      9   180.00   0.91161   2 ;    H12-    CA-     C-     N
    25     10     11     26      9   180.00   0.91161   2 ;    H13-    CA-     C-     N
    26     27     29     30      9     0.00   0.68090   3 ;      N-    C1-    C2-    H2
    26     27     29     31      9     0.00   0.68090   3 ;      N-    C1-    C2-    H3
    26     27     29     32      9     0.00   0.68090   3 ;      N-    C1-    C2-    H4
    26     27     33     34      9     0.00  -1.25491   2 ;      N-    C1-    C3-    C4
    26     27     33     42      9     0.00  -1.25491   2 ;      N-    C1-    C3-    C8
    26     44     47     48      9   180.00   0.91161   2 ;      N-    CA-     C-     O
    26     44     47     49      9   180.00   6.88318   2 ;      N-    CA-     C-     N
    26     44     47     49      9   180.00  -1.08550   1 ;      N-    CA-     C-     N
    27     26     44     45      9     0.00   2.48304   2 ;     C1-     N-    CA-   H10
    27     26     44     46      9     0.00   2.48304   2 ;     C1-     N-    CA-   H11
    27     26     44     47      9     0.00   2.48304   2 ;     C1-     N-    CA-     C
    27     33     34     35      9   180.00  13.73867   2 ;     C1-    C3-    C4-    H5
    27     33     34     36      9   180.00  13.73867   2 ;     C1-    C3-    C4-    C5
    27     33     42     40      9   180.00  13.73867   2 ;     C1-    C3-    C8-    C7
    27     33     42     43      9   180.00  13.73867   2 ;     C1-    C3-    C8-    H9
    28     27     26     44      9     0.00   2.48304   2 ;     H1-    C1-     N-    CA
    28     27     29     30      9     0.00   0.68090   3 ;     H1-    C1-    C2-    H2
    28     27     29     31      9     0.00   0.68090   3 ;     H1-    C1-    C2-    H3
    28     27     29     32      9     0.00   0.68090   3 ;     H1-    C1-    C2-    H4
    28     27     33     34      9     0.00  -1.25491   2 ;     H1-    C1-    C3-    C4
    28     27     33     42      9     0.00  -1.25491   2 ;     H1-    C1-    C3-    C8
    29     27     26     44      9     0.00   2.48304   2 ;     C2-    C1-     N-    CA
    29     27     33     34      9   180.00  -0.20401   2 ;     C2-    C1-    C3-    C4
    29     27     33     42      9   180.00  -0.20401   2 ;     C2-    C1-    C3-    C8
    30     29     27     33      9     0.00   0.68090   3 ;     H2-    C2-    C1-    C3
    31     29     27     33      9     0.00   0.68090   3 ;     H3-    C2-    C1-    C3
    32     29     27     33      9     0.00   0.68090   3 ;     H4-    C2-    C1-    C3
    33     27     26     44      9     0.00   2.48304   2 ;     C3-    C1-     N-    CA
    33     34     36     37      9   180.00  13.73867   2 ;     C3-    C4-    C5-    H6
    33     34     36     38      9   180.00  13.73867   2 ;     C3-    C4-    C5-    C6
    33     42     40     38      9   180.00  13.73867   2 ;     C3-    C8-    C7-    C6
    33     42     40     41      9   180.00  13.73867   2 ;     C3-    C8-    C7-    H8
    34     33     42     40      9   180.00  13.73867   2 ;     C4-    C3-    C8-    C7
    34     33     42     43      9   180.00  13.73867   2 ;     C4-    C3-    C8-    H9
    34     36     38     39      9   180.00  13.73867   2 ;     C4-    C5-    C6-    H7
    34     36     38     40      9   180.00  13.73867   2 ;     C4-    C5-    C6-    C7
    35     34     33     42      9   180.00  13.73867   2 ;     H5-    C4-    C3-    C8
    35     34     36     37      9   180.00  13.73867   2 ;     H5-    C4-    C5-    H6
    35     34     36     38      9   180.00  13.73867   2 ;     H5-    C4-    C5-    C6
    36     34     33     42      9   180.00  13.73867   2 ;     C5-    C4-    C3-    C8
    36     38     40     41      9   180.00  13.73867   2 ;     C5-    C6-    C7-    H8
    36     38     40     42      9   180.00  13.73867   2 ;     C5-    C6-    C7-    C8
    37     36     38     39      9   180.00  13.73867   2 ;     H6-    C5-    C6-    H7
    37     36     38     40      9   180.00  13.73867   2 ;     H6-    C5-    C6-    C7
    38     40     42     43      9   180.00  13.73867   2 ;     C6-    C7-    C8-    H9
    39     38     40     41      9   180.00  13.73867   2 ;     H7-    C6-    C7-    H8
    39     38     40     42      9   180.00  13.73867   2 ;     H7-    C6-    C7-    C8
    41     40     42     43      9   180.00  13.73867   2 ;     H8-    C7-    C8-    H9
    44     47     49     50      9     0.00   6.02458   1 ;     CA-     C-     N-    C1
    44     47     49     50      9   180.00  10.82505   2  180.00  6.49503   2;     CA-     C-     N-    C1
    44     47     49     67      9     0.00   6.02458   1 ;     CA-     C-     N-    CA
    44     47     49     67      9   180.00  10.82505   2  180.00  6.49503   2;     CA-     C-     N-    CA
    45     44     47     48      9     0.00  -3.54962   1 ;    H10-    CA-     C-     O
    45     44     47     48      9   180.00  -1.52348   3 ;    H10-    CA-     C-     O
    45     44     47     49      9   180.00   0.91161   2 ;    H10-    CA-     C-     N
    46     44     47     48      9     0.00  -3.54962   1 ;    H11-    CA-     C-     O
    46     44     47     48      9   180.00  -1.52348   3 ;    H11-    CA-     C-     O
    46     44     47     49      9   180.00   0.91161   2 ;    H11-    CA-     C-     N
    47     49     50     51      9   180.00  -1.43327   2 ;      C-     N-    C1-    H1
    47     49     50     52      9     0.00   0.71128   3 ;      C-     N-    C1-    C2
    47     49     50     52      9   180.00   0.41840   4 ;      C-     N-    C1-    C2
    47     49     50     52      9   180.00   4.26768   1 ;      C-     N-    C1-    C2
    47     49     50     56      9     0.00   2.48304   2 ;      C-     N-    C1-    C3
    47     49     67     68      9   180.00  -1.43327   2 ;      C-     N-    CA-   H10
    47     49     67     69      9   180.00  -1.43327   2 ;      C-     N-    CA-   H11
    47     49     67     70      9     0.00   4.17814   1 ;      C-     N-    CA-     C
    47     49     67     70      9   180.00  -0.71454   2 ;      C-     N-    CA-     C
    48     47     49     50      9   180.00  16.86851   2 ;      O-     C-     N-    C1
    48     47     49     67      9   180.00  16.86851   2 ;      O-     C-     N-    CA
    49     50     52     53      9     0.00   0.68090   3 ;      N-    C1-    C2-    H2
    49     50     52     54      9     0.00   0.68090   3 ;      N-    C1-    C2-    H3
    49     50     52     55      9     0.00   0.68090   3 ;      N-    C1-    C2-    H4
    49     50     56     57      9     0.00  -1.25491   2 ;      N-    C1-    C3-    C4
    49     50     56     65      9     0.00  -1.25491   2 ;      N-    C1-    C3-    C8
    49     67     70     71      9   180.00   0.91161   2 ;      N-    CA-     C-     O
    49     67     70     72      9   180.00   6.88318   2 ;      N-    CA-     C-     N
    49     67     70     72      9   180.00  -1.08550   1 ;      N-    CA-     C-     N
    50     49     67     68      9     0.00   2.48304   2 ;     C1-     N-    CA-   H10
    50     49     67     69      9     0.00   2.48304   2 ;     C1-     N-    CA-   H11
    50     49     67     70      9     0.00   2.48304   2 ;     C1-     N-    CA-     C
    50     56     57     58      9   180.00  13.73867   2 ;     C1-    C3-    C4-    H5
    50     56     57     59      9   180.00  13.73867   2 ;     C1-    C3-    C4-    C5
    50     56     65     63      9   180.00  13.73867   2 ;     C1-    C3-    C8-    C7
    50     56     65     66      9   180.00  13.73867   2 ;     C1-    C3-    C8-    H9
    51     50     49     67      9     0.00   2.48304   2 ;     H1-    C1-     N-    CA
    51     50     52     53      9     0.00   0.68090   3 ;     H1-    C1-    C2-    H2
    51     50     52     54      9     0.00   0.68090   3 ;     H1-    C1-    C2-    H3
    51     50     52     55      9     0.00   0.68090   3 ;     H1-    C1-    C2-    H4
    51     50     56     57      9     0.00  -1.25491   2 ;     H1-    C1-    C3-    C4
    51     50     56     65      9     0.00  -1.25491   2 ;     H1-    C1-    C3-    C8
    52     50     49     67      9     0.00   2.48304   2 ;     C2-    C1-     N-    CA
    52     50     56     57      9   180.00  -0.20401   2 ;     C2-    C1-    C3-    C4
    52     50     56     65      9   180.00  -0.20401   2 ;     C2-    C1-    C3-    C8
    53     52     50     56      9     0.00   0.68090   3 ;     H2-    C2-    C1-    C3
    54     52     50     56      9     0.00   0.68090   3 ;     H3-    C2-    C1-    C3
    55     52     50     56      9     0.00   0.68090   3 ;     H4-    C2-    C1-    C3
    56     50     49     67      9     0.00   2.48304   2 ;     C3-    C1-     N-    CA
    56     57     59     60      9   180.00  13.73867   2 ;     C3-    C4-    C5-    H6
    56     57     59     61      9   180.00  13.73867   2 ;     C3-    C4-    C5-    C6
    56     65     63     61      9   180.00  13.73867   2 ;     C3-    C8-    C7-    C6
    56     65     63     64      9   180.00  13.73867   2 ;     C3-    C8-    C7-    H8
    57     56     65     63      9   180.00  13.73867   2 ;     C4-    C3-    C8-    C7
    57     56     65     66      9   180.00  13.73867   2 ;     C4-    C3-    C8-    H9
    57     59     61     62      9   180.00  13.73867   2 ;     C4-    C5-    C6-    H7
    57     59     61     63      9   180.00  13.73867   2 ;     C4-    C5-    C6-    C7
    58     57     56     65      9   180.00  13.73867   2 ;     H5-    C4-    C3-    C8
    58     57     59     60      9   180.00  13.73867   2 ;     H5-    C4-    C5-    H6
    58     57     59     61      9   180.00  13.73867   2 ;     H5-    C4-    C5-    C6
    59     57     56     65      9   180.00  13.73867   2 ;     C5-    C4-    C3-    C8
    59     61     63     64      9   180.00  13.73867   2 ;     C5-    C6-    C7-    H8
    59     61     63     65      9   180.00  13.73867   2 ;     C5-    C6-    C7-    C8
    60     59     61     62      9   180.00  13.73867   2 ;     H6-    C5-    C6-    H7
    60     59     61     63      9   180.00  13.73867   2 ;     H6-    C5-    C6-    C7
    61     63     65     66      9   180.00  13.73867   2 ;     C6-    C7-    C8-    H9
    62     61     63     64      9   180.00  13.73867   2 ;     H7-    C6-    C7-    H8
    62     61     63     65      9   180.00  13.73867   2 ;     H7-    C6-    C7-    C8
    64     63     65     66      9   180.00  13.73867   2 ;     H8-    C7-    C8-    H9
    67     70     72     73      9     0.00   6.02458   1 ;     CA-     C-     N-    C1
    67     70     72     73      9   180.00  10.82505   2  180.00  6.49503   2;     CA-     C-     N-    C1
    67     70     72     90      9     0.00   6.02458   1 ;     CA-     C-     N-    CA
    67     70     72     90      9   180.00  10.82505   2  180.00  6.49503   2;     CA-     C-     N-    CA
    68     67     70     71      9     0.00  -3.54962   1 ;    H10-    CA-     C-     O
    68     67     70     71      9   180.00  -1.52348   3 ;    H10-    CA-     C-     O
    68     67     70     72      9   180.00   0.91161   2 ;    H10-    CA-     C-     N
    69     67     70     71      9     0.00  -3.54962   1 ;    H11-    CA-     C-     O
    69     67     70     71      9   180.00  -1.52348   3 ;    H11-    CA-     C-     O
    69     67     70     72      9   180.00   0.91161   2 ;    H11-    CA-     C-     N
    70     72     73     74      9   180.00  -1.43327   2 ;      C-     N-    C1-    H1
    70     72     73     75      9     0.00   0.71128   3 ;      C-     N-    C1-    C2
    70     72     73     75      9   180.00   0.41840   4 ;      C-     N-    C1-    C2
    70     72     73     75      9   180.00   4.26768   1 ;      C-     N-    C1-    C2
    70     72     73     79      9     0.00   2.48304   2 ;      C-     N-    C1-    C3
    70     72     90     91      9   180.00  -1.43327   2 ;      C-     N-    CA-   H10
    70     72     90     92      9   180.00  -1.43327   2 ;      C-     N-    CA-   H11
    70     72     90     93      9     0.00   4.17814   1 ;      C-     N-    CA-     C
    70     72     90     93      9   180.00  -0.71454   2 ;      C-     N-    CA-     C
    71     70     72     73      9   180.00  16.86851   2 ;      O-     C-     N-    C1
    71     70     72     90      9   180.00  16.86851   2 ;      O-     C-     N-    CA
    72     73     75     76      9     0.00   0.68090   3 ;      N-    C1-    C2-    H2
    72     73     75     77      9     0.00   0.68090   3 ;      N-    C1-    C2-    H3
    72     73     75     78      9     0.00   0.68090   3 ;      N-    C1-    C2-    H4
    72     73     79     80      9     0.00  -1.25491   2 ;      N-    C1-    C3-    C4
    72     73     79     88      9     0.00  -1.25491   2 ;      N-    C1-    C3-    C8
    72     90     93     94      9   180.00   0.91161   2 ;      N-    CA-     C-     O
    72     90     93     95      9   180.00   6.88318   2 ;      N-    CA-     C-     N
    72     90     93     95      9   180.00  -1.08550   1 ;      N-    CA-     C-     N
    73     72     90     91      9     0.00   2.48304   2 ;     C1-     N-    CA-   H10
    73     72     90     92      9     0.00   2.48304   2 ;     C1-     N-    CA-   H11
    73     72     90     93      9     0.00   2.48304   2 ;     C1-     N-    CA-     C
    73     79     80     81      9   180.00  13.73867   2 ;     C1-    C3-    C4-    H5
    73     79     80     82      9   180.00  13.73867   2 ;     C1-    C3-    C4-    C5
    73     79     88     86      9   180.00  13.73867   2 ;     C1-    C3-    C8-    C7
    73     79     88     89      9   180.00  13.73867   2 ;     C1-    C3-    C8-    H9
    74     73     72     90      9     0.00   2.48304   2 ;     H1-    C1-     N-    CA
    74     73     75     76      9     0.00   0.68090   3 ;     H1-    C1-    C2-    H2
    74     73     75     77      9     0.00   0.68090   3 ;     H1-    C1-    C2-    H3
    74     73     75     78      9     0.00   0.68090   3 ;     H1-    C1-    C2-    H4
    74     73     79     80      9     0.00  -1.25491   2 ;     H1-    C1-    C3-    C4
    74     73     79     88      9     0.00  -1.25491   2 ;     H1-    C1-    C3-    C8
    75     73     72     90      9     0.00   2.48304   2 ;     C2-    C1-     N-    CA
    75     73     79     80      9   180.00  -0.20401   2 ;     C2-    C1-    C3-    C4
    75     73     79     88      9   180.00  -0.20401   2 ;     C2-    C1-    C3-    C8
    76     75     73     79      9     0.00   0.68090   3 ;     H2-    C2-    C1-    C3
    77     75     73     79      9     0.00   0.68090   3 ;     H3-    C2-    C1-    C3
    78     75     73     79      9     0.00   0.68090   3 ;     H4-    C2-    C1-    C3
    79     73     72     90      9     0.00   2.48304   2 ;     C3-    C1-     N-    CA
    79     80     82     83      9   180.00  13.73867   2 ;     C3-    C4-    C5-    H6
    79     80     82     84      9   180.00  13.73867   2 ;     C3-    C4-    C5-    C6
    79     88     86     84      9   180.00  13.73867   2 ;     C3-    C8-    C7-    C6
    79     88     86     87      9   180.00  13.73867   2 ;     C3-    C8-    C7-    H8
    80     79     88     86      9   180.00  13.73867   2 ;     C4-    C3-    C8-    C7
    80     79     88     89      9   180.00  13.73867   2 ;     C4-    C3-    C8-    H9
    80     82     84     85      9   180.00  13.73867   2 ;     C4-    C5-    C6-    H7
    80     82     84     86      9   180.00  13.73867   2 ;     C4-    C5-    C6-    C7
    81     80     79     88      9   180.00  13.73867   2 ;     H5-    C4-    C3-    C8
    81     80     82     83      9   180.00  13.73867   2 ;     H5-    C4-    C5-    H6
    81     80     82     84      9   180.00  13.73867   2 ;     H5-    C4-    C5-    C6
    82     80     79     88      9   180.00  13.73867   2 ;     C5-    C4-    C3-    C8
    82     84     86     87      9   180.00  13.73867   2 ;     C5-    C6-    C7-    H8
    82     84     86     88      9   180.00  13.73867   2 ;     C5-    C6-    C7-    C8
    83     82     84     85      9   180.00  13.73867   2 ;     H6-    C5-    C6-    H7
    83     82     84     86      9   180.00  13.73867   2 ;     H6-    C5-    C6-    C7
    84     86     88     89      9   180.00  13.73867   2 ;     C6-    C7-    C8-    H9
    85     84     86     87      9   180.00  13.73867   2 ;     H7-    C6-    C7-    H8
    85     84     86     88      9   180.00  13.73867   2 ;     H7-    C6-    C7-    C8
    87     86     88     89      9   180.00  13.73867   2 ;     H8-    C7-    C8-    H9
    90     93     95     96      9     0.00   6.02458   1 ;     CA-     C-     N-    C1
    90     93     95     96      9   180.00  10.82505   2  180.00  6.49503   2;     CA-     C-     N-    C1
    90     93     95    113      9     0.00   6.02458   1 ;     CA-     C-     N-    CA
    90     93     95    113      9   180.00  10.82505   2  180.00  6.49503   2;     CA-     C-     N-    CA
    91     90     93     94      9     0.00  -3.54962   1 ;    H10-    CA-     C-     O
    91     90     93     94      9   180.00  -1.52348   3 ;    H10-    CA-     C-     O
    91     90     93     95      9   180.00   0.91161   2 ;    H10-    CA-     C-     N
    92     90     93     94      9     0.00  -3.54962   1 ;    H11-    CA-     C-     O
    92     90     93     94      9   180.00  -1.52348   3 ;    H11-    CA-     C-     O
    92     90     93     95      9   180.00   0.91161   2 ;    H11-    CA-     C-     N
    93     95     96     97      9   180.00  -1.43327   2 ;      C-     N-    C1-    H1
    93     95     96     98      9     0.00   0.71128   3 ;      C-     N-    C1-    C2
    93     95     96     98      9   180.00   0.41840   4 ;      C-     N-    C1-    C2
    93     95     96     98      9   180.00   4.26768   1 ;      C-     N-    C1-    C2
    93     95     96    102      9     0.00   2.48304   2 ;      C-     N-    C1-    C3
    93     95    113    114      9   180.00  -1.43327   2 ;      C-     N-    CA-   H10
    93     95    113    115      9   180.00  -1.43327   2 ;      C-     N-    CA-   H11
    93     95    113    116      9     0.00   4.17814   1 ;      C-     N-    CA-     C
    93     95    113    116      9   180.00  -0.71454   2 ;      C-     N-    CA-     C
    94     93     95     96      9   180.00  16.86851   2 ;      O-     C-     N-    C1
    94     93     95    113      9   180.00  16.86851   2 ;      O-     C-     N-    CA
    95     96     98     99      9     0.00   0.68090   3 ;      N-    C1-    C2-    H2
    95     96     98    100      9     0.00   0.68090   3 ;      N-    C1-    C2-    H3
    95     96     98    101      9     0.00   0.68090   3 ;      N-    C1-    C2-    H4
    95     96    102    103      9     0.00  -1.25491   2 ;      N-    C1-    C3-    C4
    95     96    102    111      9     0.00  -1.25491   2 ;      N-    C1-    C3-    C8
    95    113    116    117      9   180.00   0.91161   2 ;      N-    CA-     C-     O
    95    113    116    118      9   180.00   6.88318   2 ;      N-    CA-     C-     N
    95    113    116    118      9   180.00  -1.08550   1 ;      N-    CA-     C-     N
    96     95    113    114      9     0.00   2.48304   2 ;     C1-     N-    CA-   H10
    96     95    113    115      9     0.00   2.48304   2 ;     C1-     N-    CA-   H11
    96     95    113    116      9     0.00   2.48304   2 ;     C1-     N-    CA-     C
    96    102    103    104      9   180.00  13.73867   2 ;     C1-    C3-    C4-    H5
    96    102    103    105      9   180.00  13.73867   2 ;     C1-    C3-    C4-    C5
    96    102    111    109      9   180.00  13.73867   2 ;     C1-    C3-    C8-    C7
    96    102    111    112      9   180.00  13.73867   2 ;     C1-    C3-    C8-    H9
    97     96     95    113      9     0.00   2.48304   2 ;     H1-    C1-     N-    CA
    97     96     98     99      9     0.00   0.68090   3 ;     H1-    C1-    C2-    H2
    97     96     98    100      9     0.00   0.68090   3 ;     H1-    C1-    C2-    H3
    97     96     98    101      9     0.00   0.68090   3 ;     H1-    C1-    C2-    H4
    97     96    102    103      9     0.00  -1.25491   2 ;     H1-    C1-    C3-    C4
    97     96    102    111      9     0.00  -1.25491   2 ;     H1-    C1-    C3-    C8
    98     96     95    113      9     0.00   2.48304   2 ;     C2-    C1-     N-    CA
    98     96    102    103      9   180.00  -0.20401   2 ;     C2-    C1-    C3-    C4
    98     96    102    111      9   180.00  -0.20401   2 ;     C2-    C1-    C3-    C8
    99     98     96    102      9     0.00   0.68090   3 ;     H2-    C2-    C1-    C3
   100     98     96    102      9     0.00   0.68090   3 ;     H3-    C2-    C1-    C3
   101     98     96    102      9     0.00   0.68090   3 ;     H4-    C2-    C1-    C3
   102     96     95    113      9     0.00   2.48304   2 ;     C3-    C1-     N-    CA
   102    103    105    106      9   180.00  13.73867   2 ;     C3-    C4-    C5-    H6
   102    103    105    107      9   180.00  13.73867   2 ;     C3-    C4-    C5-    C6
   102    111    109    107      9   180.00  13.73867   2 ;     C3-    C8-    C7-    C6
   102    111    109    110      9   180.00  13.73867   2 ;     C3-    C8-    C7-    H8
   103    102    111    109      9   180.00  13.73867   2 ;     C4-    C3-    C8-    C7
   103    102    111    112      9   180.00  13.73867   2 ;     C4-    C3-    C8-    H9
   103    105    107    108      9   180.00  13.73867   2 ;     C4-    C5-    C6-    H7
   103    105    107    109      9   180.00  13.73867   2 ;     C4-    C5-    C6-    C7
   104    103    102    111      9   180.00  13.73867   2 ;     H5-    C4-    C3-    C8
   104    103    105    106      9   180.00  13.73867   2 ;     H5-    C4-    C5-    H6
   104    103    105    107      9   180.00  13.73867   2 ;     H5-    C4-    C5-    C6
   105    103    102    111      9   180.00  13.73867   2 ;     C5-    C4-    C3-    C8
   105    107    109    110      9   180.00  13.73867   2 ;     C5-    C6-    C7-    H8
   105    107    109    111      9   180.00  13.73867   2 ;     C5-    C6-    C7-    C8
   106    105    107    108      9   180.00  13.73867   2 ;     H6-    C5-    C6-    H7
   106    105    107    109      9   180.00  13.73867   2 ;     H6-    C5-    C6-    C7
   107    109    111    112      9   180.00  13.73867   2 ;     C6-    C7-    C8-    H9
   108    107    109    110      9   180.00  13.73867   2 ;     H7-    C6-    C7-    H8
   108    107    109    111      9   180.00  13.73867   2 ;     H7-    C6-    C7-    C8
   110    109    111    112      9   180.00  13.73867   2 ;     H8-    C7-    C8-    H9
   113    116    118    119      9     0.00   6.02458   1 ;     CA-     C-     N-    C1
   113    116    118    119      9   180.00  10.82505   2  180.00  6.49503   2;     CA-     C-     N-    C1
   113    116    118    136      9     0.00   6.02458   1 ;     CA-     C-     N-    CA
   113    116    118    136      9   180.00  10.82505   2  180.00  6.49503   2;     CA-     C-     N-    CA
   114    113    116    117      9     0.00  -3.54962   1 ;    H10-    CA-     C-     O
   114    113    116    117      9   180.00  -1.52348   3 ;    H10-    CA-     C-     O
   114    113    116    118      9   180.00   0.91161   2 ;    H10-    CA-     C-     N
   115    113    116    117      9     0.00  -3.54962   1 ;    H11-    CA-     C-     O
   115    113    116    117      9   180.00  -1.52348   3 ;    H11-    CA-     C-     O
   115    113    116    118      9   180.00   0.91161   2 ;    H11-    CA-     C-     N
   116    118    119    120      9   180.00  -1.43327   2 ;      C-     N-    C1-    H1
   116    118    119    121      9     0.00   0.71128   3 ;      C-     N-    C1-    C2
   116    118    119    121      9   180.00   0.41840   4 ;      C-     N-    C1-    C2
   116    118    119    121      9   180.00   4.26768   1 ;      C-     N-    C1-    C2
   116    118    119    125      9     0.00   2.48304   2 ;      C-     N-    C1-    C3
   116    118    136    137      9   180.00  -1.43327   2 ;      C-     N-    CA-   H10
   116    118    136    138      9   180.00  -1.43327   2 ;      C-     N-    CA-   H11
   116    118    136    139      9     0.00   4.17814   1 ;      C-     N-    CA-     C
   116    118    136    139      9   180.00  -0.71454   2 ;      C-     N-    CA-     C
   117    116    118    119      9   180.00  16.86851   2 ;      O-     C-     N-    C1
   117    116    118    136      9   180.00  16.86851   2 ;      O-     C-     N-    CA
   118    119    121    122      9     0.00   0.68090   3 ;      N-    C1-    C2-    H2
   118    119    121    123      9     0.00   0.68090   3 ;      N-    C1-    C2-    H3
   118    119    121    124      9     0.00   0.68090   3 ;      N-    C1-    C2-    H4
   118    119    125    126      9     0.00  -1.25491   2 ;      N-    C1-    C3-    C4
   118    119    125    134      9     0.00  -1.25491   2 ;      N-    C1-    C3-    C8
   118    136    139    140      9   180.00   0.91161   2 ;      N-    CA-     C-     O
   118    136    139    141      9   180.00   6.88318   2 ;      N-    CA-     C-     N
   118    136    139    141      9   180.00  -1.08550   1 ;      N-    CA-     C-     N
   119    118    136    137      9     0.00   2.48304   2 ;     C1-     N-    CA-   H10
   119    118    136    138      9     0.00   2.48304   2 ;     C1-     N-    CA-   H11
   119    118    136    139      9     0.00   2.48304   2 ;     C1-     N-    CA-     C
   119    125    126    127      9   180.00  13.73867   2 ;     C1-    C3-    C4-    H5
   119    125    126    128      9   180.00  13.73867   2 ;     C1-    C3-    C4-    C5
   119    125    134    132      9   180.00  13.73867   2 ;     C1-    C3-    C8-    C7
   119    125    134    135      9   180.00  13.73867   2 ;     C1-    C3-    C8-    H9
   120    119    118    136      9     0.00   2.48304   2 ;     H1-    C1-     N-    CA
   120    119    121    122      9     0.00   0.68090   3 ;     H1-    C1-    C2-    H2
   120    119    121    123      9     0.00   0.68090   3 ;     H1-    C1-    C2-    H3
   120    119    121    124      9     0.00   0.68090   3 ;     H1-    C1-    C2-    H4
   120    119    125    126      9     0.00  -1.25491   2 ;     H1-    C1-    C3-    C4
   120    119    125    134      9     0.00  -1.25491   2 ;     H1-    C1-    C3-    C8
   121    119    118    136      9     0.00   2.48304   2 ;     C2-    C1-     N-    CA
   121    119    125    126      9   180.00  -0.20401   2 ;     C2-    C1-    C3-    C4
   121    119    125    134      9   180.00  -0.20401   2 ;     C2-    C1-    C3-    C8
   122    121    119    125      9     0.00   0.68090   3 ;     H2-    C2-    C1-    C3
   123    121    119    125      9     0.00   0.68090   3 ;     H3-    C2-    C1-    C3
   124    121    119    125      9     0.00   0.68090   3 ;     H4-    C2-    C1-    C3
   125    119    118    136      9     0.00   2.48304   2 ;     C3-    C1-     N-    CA
   125    126    128    129      9   180.00  13.73867   2 ;     C3-    C4-    C5-    H6
   125    126    128    130      9   180.00  13.73867   2 ;     C3-    C4-    C5-    C6
   125    134    132    130      9   180.00  13.73867   2 ;     C3-    C8-    C7-    C6
   125    134    132    133      9   180.00  13.73867   2 ;     C3-    C8-    C7-    H8
   126    125    134    132      9   180.00  13.73867   2 ;     C4-    C3-    C8-    C7
   126    125    134    135      9   180.00  13.73867   2 ;     C4-    C3-    C8-    H9
   126    128    130    131      9   180.00  13.73867   2 ;     C4-    C5-    C6-    H7
   126    128    130    132      9   180.00  13.73867   2 ;     C4-    C5-    C6-    C7
   127    126    125    134      9   180.00  13.73867   2 ;     H5-    C4-    C3-    C8
   127    126    128    129      9   180.00  13.73867   2 ;     H5-    C4-    C5-    H6
   127    126    128    130      9   180.00  13.73867   2 ;     H5-    C4-    C5-    C6
   128    126    125    134      9   180.00  13.73867   2 ;     C5-    C4-    C3-    C8
   128    130    132    133      9   180.00  13.73867   2 ;     C5-    C6-    C7-    H8
   128    130    132    134      9   180.00  13.73867   2 ;     C5-    C6-    C7-    C8
   129    128    130    131      9   180.00  13.73867   2 ;     H6-    C5-    C6-    H7
   129    128    130    132      9   180.00  13.73867   2 ;     H6-    C5-    C6-    C7
   130    132    134    135      9   180.00  13.73867   2 ;     C6-    C7-    C8-    H9
   131    130    132    133      9   180.00  13.73867   2 ;     H7-    C6-    C7-    H8
   131    130    132    134      9   180.00  13.73867   2 ;     H7-    C6-    C7-    C8
   133    132    134    135      9   180.00  13.73867   2 ;     H8-    C7-    C8-    H9
   136    139    141    142      9     0.00   6.02458   1 ;     CA-     C-     N-    C1
   136    139    141    142      9   180.00  10.82505   2  180.00  6.49503   2;     CA-     C-     N-    C1
   136    139    141    159      9     0.00   6.02458   1 ;     CA-     C-     N-    CA
   136    139    141    159      9   180.00  10.82505   2  180.00  6.49503   2;     CA-     C-     N-    CA
   137    136    139    140      9     0.00  -3.54962   1 ;    H10-    CA-     C-     O
   137    136    139    140      9   180.00  -1.52348   3 ;    H10-    CA-     C-     O
   137    136    139    141      9   180.00   0.91161   2 ;    H10-    CA-     C-     N
   138    136    139    140      9     0.00  -3.54962   1 ;    H11-    CA-     C-     O
   138    136    139    140      9   180.00  -1.52348   3 ;    H11-    CA-     C-     O
   138    136    139    141      9   180.00   0.91161   2 ;    H11-    CA-     C-     N
   139    141    142    143      9   180.00  -1.43327   2 ;      C-     N-    C1-    H1
   139    141    142    144      9     0.00   0.71128   3 ;      C-     N-    C1-    C2
   139    141    142    144      9   180.00   0.41840   4 ;      C-     N-    C1-    C2
   139    141    142    144      9   180.00   4.26768   1 ;      C-     N-    C1-    C2
   139    141    142    148      9     0.00   2.48304   2 ;      C-     N-    C1-    C3
   139    141    159    160      9   180.00  -1.43327   2 ;      C-     N-    CA-   H10
   139    141    159    161      9   180.00  -1.43327   2 ;      C-     N-    CA-   H11
   139    141    159    162      9     0.00   4.17814   1 ;      C-     N-    CA-     C
   139    141    159    162      9   180.00  -0.71454   2 ;      C-     N-    CA-     C
   140    139    141    142      9   180.00  16.86851   2 ;      O-     C-     N-    C1
   140    139    141    159      9   180.00  16.86851   2 ;      O-     C-     N-    CA
   141    142    144    145      9     0.00   0.68090   3 ;      N-    C1-    C2-    H2
   141    142    144    146      9     0.00   0.68090   3 ;      N-    C1-    C2-    H3
   141    142    144    147      9     0.00   0.68090   3 ;      N-    C1-    C2-    H4
   141    142    148    149      9     0.00  -1.25491   2 ;      N-    C1-    C3-    C4
   141    142    148    157      9     0.00  -1.25491   2 ;      N-    C1-    C3-    C8
   141    159    162    163      9   180.00   0.91161   2 ;      N-    CA-     C-     O
   141    159    162    164      9   180.00   6.88318   2 ;      N-    CA-     C-     N
   141    159    162    164      9   180.00  -1.08550   1 ;      N-    CA-     C-     N
   142    141    159    160      9     0.00   2.48304   2 ;     C1-     N-    CA-   H10
   142    141    159    161      9     0.00   2.48304   2 ;     C1-     N-    CA-   H11
   142    141    159    162      9     0.00   2.48304   2 ;     C1-     N-    CA-     C
   142    148    149    150      9   180.00  13.73867   2 ;     C1-    C3-    C4-    H5
   142    148    149    151      9   180.00  13.73867   2 ;     C1-    C3-    C4-    C5
   142    148    157    155      9   180.00  13.73867   2 ;     C1-    C3-    C8-    C7
   142    148    157    158      9   180.00  13.73867   2 ;     C1-    C3-    C8-    H9
   143    142    141    159      9     0.00   2.48304   2 ;     H1-    C1-     N-    CA
   143    142    144    145      9     0.00   0.68090   3 ;     H1-    C1-    C2-    H2
   143    142    144    146      9     0.00   0.68090   3 ;     H1-    C1-    C2-    H3
   143    142    144    147      9     0.00   0.68090   3 ;     H1-    C1-    C2-    H4
   143    142    148    149      9     0.00  -1.25491   2 ;     H1-    C1-    C3-    C4
   143    142    148    157      9     0.00  -1.25491   2 ;     H1-    C1-    C3-    C8
   144    142    141    159      9     0.00   2.48304   2 ;     C2-    C1-     N-    CA
   144    142    148    149      9   180.00  -0.20401   2 ;     C2-    C1-    C3-    C4
   144    142    148    157      9   180.00  -0.20401   2 ;     C2-    C1-    C3-    C8
   145    144    142    148      9     0.00   0.68090   3 ;     H2-    C2-    C1-    C3
   146    144    142    148      9     0.00   0.68090   3 ;     H3-    C2-    C1-    C3
   147    144    142    148      9     0.00   0.68090   3 ;     H4-    C2-    C1-    C3
   148    142    141    159      9     0.00   2.48304   2 ;     C3-    C1-     N-    CA
   148    149    151    152      9   180.00  13.73867   2 ;     C3-    C4-    C5-    H6
   148    149    151    153      9   180.00  13.73867   2 ;     C3-    C4-    C5-    C6
   148    157    155    153      9   180.00  13.73867   2 ;     C3-    C8-    C7-    C6
   148    157    155    156      9   180.00  13.73867   2 ;     C3-    C8-    C7-    H8
   149    148    157    155      9   180.00  13.73867   2 ;     C4-    C3-    C8-    C7
   149    148    157    158      9   180.00  13.73867   2 ;     C4-    C3-    C8-    H9
   149    151    153    154      9   180.00  13.73867   2 ;     C4-    C5-    C6-    H7
   149    151    153    155      9   180.00  13.73867   2 ;     C4-    C5-    C6-    C7
   150    149    148    157      9   180.00  13.73867   2 ;     H5-    C4-    C3-    C8
   150    149    151    152      9   180.00  13.73867   2 ;     H5-    C4-    C5-    H6
   150    149    151    153      9   180.00  13.73867   2 ;     H5-    C4-    C5-    C6
   151    149    148    157      9   180.00  13.73867   2 ;     C5-    C4-    C3-    C8
   151    153    155    156      9   180.00  13.73867   2 ;     C5-    C6-    C7-    H8
   151    153    155    157      9   180.00  13.73867   2 ;     C5-    C6-    C7-    C8
   152    151    153    154      9   180.00  13.73867   2 ;     H6-    C5-    C6-    H7
   152    151    153    155      9   180.00  13.73867   2 ;     H6-    C5-    C6-    C7
   153    155    157    158      9   180.00  13.73867   2 ;     C6-    C7-    C8-    H9
   154    153    155    156      9   180.00  13.73867   2 ;     H7-    C6-    C7-    H8
   154    153    155    157      9   180.00  13.73867   2 ;     H7-    C6-    C7-    C8
   156    155    157    158      9   180.00  13.73867   2 ;     H8-    C7-    C8-    H9
   159    162    164    165      9   180.00  16.86851   2 ;     CA-     C-     N-    H1
   159    162    164    166      9   180.00  16.86851   2 ;     CA-     C-     N-    H2
   160    159    162    163      9     0.00  -3.54962   1 ;    H10-    CA-     C-     O
   160    159    162    163      9   180.00  -1.52348   3 ;    H10-    CA-     C-     O
   160    159    162    164      9   180.00   0.91161   2 ;    H10-    CA-     C-     N
   161    159    162    163      9     0.00  -3.54962   1 ;    H11-    CA-     C-     O
   161    159    162    163      9   180.00  -1.52348   3 ;    H11-    CA-     C-     O
   161    159    162    164      9   180.00   0.91161   2 ;    H11-    CA-     C-     N
   163    162    164    165      9     0.00  54.57442   1 ;      O-     C-     N-    H1
   163    162    164    165      9   180.00   6.65043   2 ;      O-     C-     N-    H1
   163    162    164    166      9     0.00  54.57442   1 ;      O-     C-     N-    H2
   163    162    164    166      9   180.00   6.65043   2 ;      O-     C-     N-    H2

[ dihedrals ] ; impropers
; treated as propers in GROMACS to use correct AMBER analytical function
;    i      j      k      l   func   phase     kd      pn
     4      6      5     19      4   180.00   4.60240   2 ;     C3-    C5-    C4-    H7
     4      8      9     23      4   180.00   4.60240   2 ;     C3-    C7-    C8-   H11
     5      7      6     20      4   180.00   4.60240   2 ;     C4-    C6-    C5-    H8
     5      9      4      2      4   180.00   4.60240   2 ;     C4-    C8-    C3-    C1
     6      8      7     21      4   180.00   4.60240   2 ;     C5-    C7-    C6-    H9
     7      9      8     22      4   180.00   4.60240   2 ;     C6-    C8-    C7-   H10
    10      1      2     13      4   180.00   4.60240   2 ;     CA-     N-    C1-    H1
    10      1      2     14      4   180.00   4.60240   2 ;     CA-     N-    C1-    H2
    10     26     11     12      4   180.00  43.93200   2 ;     CA-     N-     C-     O
    11     27     26     44      4   180.00   4.60240   2 ;      C-    C1-     N-    CA
    14      1     13      2      4   180.00   4.60240   2 ;     H2-     N-    H1-    C1
    14      1     13     10      4   180.00   4.60240   2 ;     H2-     N-    H1-    CA
    27     34     33     42      4   180.00   4.60240   2 ;     C1-    C4-    C3-    C8
    33     36     34     35      4   180.00   4.60240   2 ;     C3-    C5-    C4-    H5
    33     40     42     43      4   180.00   4.60240   2 ;     C3-    C7-    C8-    H9
    34     38     36     37      4   180.00   4.60240   2 ;     C4-    C6-    C5-    H6
    36     40     38     39      4   180.00   4.60240   2 ;     C5-    C7-    C6-    H7
    38     42     40     41      4   180.00   4.60240   2 ;     C6-    C8-    C7-    H8
    44     49     47     48      4   180.00  43.93200   2 ;     CA-     N-     C-     O
    47     50     49     67      4   180.00   4.60240   2 ;      C-    C1-     N-    CA
    50     57     56     65      4   180.00   4.60240   2 ;     C1-    C4-    C3-    C8
    56     59     57     58      4   180.00   4.60240   2 ;     C3-    C5-    C4-    H5
    56     63     65     66      4   180.00   4.60240   2 ;     C3-    C7-    C8-    H9
    57     61     59     60      4   180.00   4.60240   2 ;     C4-    C6-    C5-    H6
    59     63     61     62      4   180.00   4.60240   2 ;     C5-    C7-    C6-    H7
    61     65     63     64      4   180.00   4.60240   2 ;     C6-    C8-    C7-    H8
    67     72     70     71      4   180.00  43.93200   2 ;     CA-     N-     C-     O
    70     73     72     90      4   180.00   4.60240   2 ;      C-    C1-     N-    CA
    73     80     79     88      4   180.00   4.60240   2 ;     C1-    C4-    C3-    C8
    79     82     80     81      4   180.00   4.60240   2 ;     C3-    C5-    C4-    H5
    79     86     88     89      4   180.00   4.60240   2 ;     C3-    C7-    C8-    H9
    80     84     82     83      4   180.00   4.60240   2 ;     C4-    C6-    C5-    H6
    82     86     84     85      4   180.00   4.60240   2 ;     C5-    C7-    C6-    H7
    84     88     86     87      4   180.00   4.60240   2 ;     C6-    C8-    C7-    H8
    90     95     93     94      4   180.00  43.93200   2 ;     CA-     N-     C-     O
    93     96     95    113      4   180.00   4.60240   2 ;      C-    C1-     N-    CA
    96    103    102    111      4   180.00   4.60240   2 ;     C1-    C4-    C3-    C8
   102    105    103    104      4   180.00   4.60240   2 ;     C3-    C5-    C4-    H5
   102    109    111    112      4   180.00   4.60240   2 ;     C3-    C7-    C8-    H9
   103    107    105    106      4   180.00   4.60240   2 ;     C4-    C6-    C5-    H6
   105    109    107    108      4   180.00   4.60240   2 ;     C5-    C7-    C6-    H7
   107    111    109    110      4   180.00   4.60240   2 ;     C6-    C8-    C7-    H8
   113    118    116    117      4   180.00  43.93200   2 ;     CA-     N-     C-     O
   116    119    118    136      4   180.00   4.60240   2 ;      C-    C1-     N-    CA
   119    126    125    134      4   180.00   4.60240   2 ;     C1-    C4-    C3-    C8
   125    128    126    127      4   180.00   4.60240   2 ;     C3-    C5-    C4-    H5
   125    132    134    135      4   180.00   4.60240   2 ;     C3-    C7-    C8-    H9
   126    130    128    129      4   180.00   4.60240   2 ;     C4-    C6-    C5-    H6
   128    132    130    131      4   180.00   4.60240   2 ;     C5-    C7-    C6-    H7
   130    134    132    133      4   180.00   4.60240   2 ;     C6-    C8-    C7-    H8
   136    141    139    140      4   180.00  43.93200   2 ;     CA-     N-     C-     O
   139    142    141    159      4   180.00   4.60240   2 ;      C-    C1-     N-    CA
   142    149    148    157      4   180.00   4.60240   2 ;     C1-    C4-    C3-    C8
   148    151    149    150      4   180.00   4.60240   2 ;     C3-    C5-    C4-    H5
   148    155    157    158      4   180.00   4.60240   2 ;     C3-    C7-    C8-    H9
   149    153    151    152      4   180.00   4.60240   2 ;     C4-    C6-    C5-    H6
   151    155    153    154      4   180.00   4.60240   2 ;     C5-    C7-    C6-    H7
   153    157    155    156      4   180.00   4.60240   2 ;     C6-    C8-    C7-    H8
   159    164    162    163      4   180.00  43.93200   2 ;     CA-     N-     C-     O
   162    165    164    166      4   180.00   4.60240   2 ;      C-    H1-     N-    H2
