nspe_7_1 in water
 2117
    1H02      N    1   2.666   3.350   2.246  0.4547 -0.3995 -0.0725
    1H02     C1    2   2.600   3.235   2.169 -0.5656  0.1105  0.4164
    1H02     C2    3   2.636   3.239   2.016  0.2821  0.2690 -0.2706
    1H02     C3    4   2.626   3.096   2.227 -0.2030 -0.4473  0.3423
    1H02     C4    5   2.519   3.017   2.262 -0.3187  0.3659 -0.0781
    1H02     C5    6   2.545   2.886   2.300 -0.0974  0.3878 -0.0686
    1H02     C6    7   2.671   2.834   2.316  0.2602  0.3131 -0.2716
    1H02     C7    8   2.778   2.919   2.291  0.6906  0.3149  0.1642
    1H02     C8    9   2.755   3.049   2.230  0.0522 -0.1753 -0.0147
    1H02     CA   10   2.569   3.470   2.274 -0.3507  0.0845 -0.2551
    1H02      C   11   2.510   3.458   2.421  0.1614  0.2289  0.1600
    1H02      O   12   2.505   3.348   2.466  0.3812  0.2404  0.0553
    1H02     H1   13   2.745   3.380   2.190 -0.8764  1.4840 -1.0268
    1H02     H2   14   2.703   3.321   2.336 -0.5965 -0.8006  0.2428
    1H02     H3   15   2.493   3.255   2.182 -0.3238 -0.0155  3.4521
    1H02     H4   16   2.740   3.213   1.997  0.4652  0.0712  0.9120
    1H02     H5   17   2.636   3.343   1.980  1.3480  0.1233 -0.7156
    1H02     H6   18   2.565   3.176   1.961  2.8884 -1.0459 -2.3534
    1H02     H7   19   2.415   3.048   2.269 -0.7178 -1.2591  2.2710
    1H02     H8   20   2.460   2.824   2.328  1.2017 -0.5355  2.1092
    1H02     H9   21   2.691   2.735   2.355 -1.5840 -0.5517 -1.4320
    1H02    H10   22   2.880   2.882   2.297  0.5031 -0.4976 -1.2682
    1H02    H11   23   2.842   3.110   2.209  0.9718  0.3090  4.2475
    1H02    H12   24   2.481   3.462   2.210  0.0102  0.3841 -0.7927
    1H02    H13   25   2.637   3.556   2.265  4.0265 -2.7254  2.0436
    2R02      N   26   2.461   3.573   2.486 -0.0880 -0.2490 -0.3618
    2R02     C1   27   2.437   3.695   2.412  0.2434 -0.0864  0.3803
    2R02     H1   28   2.423   3.664   2.308  4.0975  0.1530 -0.3615
    2R02     C2   29   2.300   3.763   2.455 -0.3985  1.1758 -0.4981
    2R02     H2   30   2.218   3.691   2.441  0.8769 -0.3045 -0.6596
    2R02     H3   31   2.281   3.858   2.404  1.7649  2.8414  1.5993
    2R02     H4   32   2.305   3.797   2.559 -0.2713 -0.0453 -0.0806
    2R02     C3   33   2.555   3.789   2.413 -0.5969  0.4087 -0.0935
    2R02     C4   34   2.660   3.797   2.518  1.0778  0.3128  0.2997
    2R02     H5   35   2.631   3.743   2.607 -1.8240 -1.1527 -1.3706
    2R02     C5   36   2.775   3.875   2.498  0.3117 -0.7900  0.3075
    2R02     H6   37   2.849   3.880   2.576  0.5852 -1.5395  0.1090
    2R02     C6   38   2.797   3.942   2.376 -0.3659 -0.1241 -0.1644
    2R02     H7   39   2.887   4.001   2.364 -1.0035  0.9221  0.0508
    2R02     C7   40   2.702   3.930   2.274  0.0771  0.0165 -0.2445
    2R02     H8   41   2.729   3.969   2.176 -0.1439 -0.7792 -0.6312
    2R02     C8   42   2.584   3.853   2.290  0.0901  0.2892  0.0599
    2R02     H9   43   2.508   3.848   2.213 -1.2813  1.4266  1.2702
    2R02     CA   44   2.404   3.572   2.625 -0.0226  0.0956  0.1330
    2R02    H10   45   2.299   3.538   2.623 -0.7196  1.9721  1.5984
    2R02    H11   46   2.393   3.676   2.660 -2.5841 -0.3906  1.0033
    2R02      C   47   2.478   3.497   2.731  0.2073 -0.5121 -0.6051
    2R02      O   48   2.595   3.455   2.714  0.0032 -0.4748  0.0281
    3R02      N   49   2.422   3.490   2.858  0.4182 -0.2344  0.5420
    3R02     C1   50   2.450   3.387   2.959  0.7416 -0.1325 -0.8702
    3R02     H1   51   2.468   3.442   3.052 -0.0410 -3.2656  1.3007
    3R02     C2   52   2.310   3.318   2.978 -0.7856  0.1861 -0.7090
    3R02     H2   53   2.259   3.292   2.885 -0.1585 -2.0562 -0.4959
    3R02     H3   54   2.238   3.375   3.038 -1.2508 -1.4012  0.3015
    3R02     H4   55   2.328   3.234   3.046  1.5113  1.7429  0.7708
    3R02     C3   56   2.564   3.287   2.934  0.5371 -0.1078 -0.1671
    3R02     C4   57   2.557   3.193   2.833  0.4020  0.9727  0.2310
    3R02     H5   58   2.470   3.182   2.769  1.2919  2.4837 -1.3582
    3R02     C5   59   2.666   3.112   2.803  0.0853  0.0918 -0.0088
    3R02     H6   60   2.668   3.036   2.724  1.3291  1.5153 -1.4197
    3R02     C6   61   2.786   3.122   2.881  0.3136  0.0427  0.3259
    3R02     H7   62   2.871   3.056   2.870  1.0167  0.7253  1.4619
    3R02     C7   63   2.796   3.215   2.989 -0.6598 -0.7003  0.7140
    3R02     H8   64   2.887   3.205   3.048  0.3794  0.7863 -0.5564
    3R02     C8   65   2.683   3.295   3.014  0.8917  0.2657  0.4069
    3R02     H9   66   2.686   3.365   3.097 -0.9219 -0.2225  0.9362
    3R02     CA   67   2.310   3.578   2.885  0.4258 -0.4084  0.3881
    3R02    H10   68   2.262   3.559   2.982 -0.1858  2.9024  0.8340
    3R02    H11   69   2.224   3.555   2.822  0.9022  0.4305 -0.5902
    3R02      C   70   2.345   3.731   2.903 -0.5002  0.0747  0.1953
    3R02      O   71   2.462   3.772   2.895  0.4839  0.7776  1.0254
    4R02      N   72   2.232   3.810   2.928  0.0596 -0.3429 -0.2306
    4R02     C1   73   2.237   3.957   2.931  0.1152  0.3922 -0.1438
    4R02     H1   74   2.136   3.986   2.963 -0.6090  0.4926 -2.3747
    4R02     C2   75   2.323   4.007   3.047 -0.4275 -0.4144  0.9385
    4R02     H2   76   2.425   3.966   3.050  0.0862  0.3303 -2.3693
    4R02     H3   77   2.276   3.991   3.145  1.4168 -0.1005  1.9314
    4R02     H4   78   2.333   4.114   3.029 -1.8820  0.2382  3.5202
    4R02     C3   79   2.263   4.011   2.795  0.3730  0.3653  0.6145
    4R02     C4   80   2.156   4.037   2.707  0.5566  0.3656  0.4582
    4R02     H5   81   2.056   4.030   2.749  0.4752 -2.6434 -0.0593
    4R02     C5   82   2.163   4.051   2.568 -0.9002  0.5518 -0.3191
    4R02     H6   83   2.073   4.068   2.509 -0.3597  0.8471 -1.0811
    4R02     C6   84   2.289   4.071   2.516  0.7689 -0.0309  0.4250
    4R02     H7   85   2.301   4.081   2.408  1.1531  0.3269  0.4957
    4R02     C7   86   2.407   4.061   2.592 -0.1607  0.7638 -0.4564
    4R02     H8   87   2.506   4.076   2.550 -1.3429 -0.3819 -3.9979
    4R02     C8   88   2.391   4.031   2.736 -0.6826  0.4467 -0.0984
    4R02     H9   89   2.475   4.031   2.806 -1.0548  0.0620  0.3610
    4R02     CA   90   2.102   3.757   2.952  0.1970 -0.3247  0.3257
    4R02    H10   91   2.083   3.656   2.915  1.0222  0.3595 -2.1761
    4R02    H11   92   2.030   3.808   2.887 -0.5787 -0.5849  0.9661
    4R02      C   93   2.054   3.760   3.102 -0.5814  0.8206 -0.1754
    4R02      O   94   2.137   3.784   3.190  0.0224  0.2777  0.1622
    5R02      N   95   1.924   3.718   3.131  0.2212 -0.9713 -0.2096
    5R02     C1   96   1.818   3.736   3.036  0.4099 -0.1142  0.1221
    5R02     H1   97   1.845   3.813   2.962 -1.8697 -1.7380 -2.6094
    5R02     C2   98   1.796   3.619   2.946 -0.4233 -0.0181  0.1746
    5R02     H2   99   1.701   3.623   2.892  1.8357  1.5704 -4.1483
    5R02     H3  100   1.804   3.521   2.995  3.4461  0.2801  0.5041
    5R02     H4  101   1.871   3.606   2.867  1.8963  2.0880  1.8527
    5R02     C3  102   1.687   3.791   3.095 -0.0109  0.0620  0.0413
    5R02     C4  103   1.668   3.927   3.094 -0.7978 -0.5044 -0.5592
    5R02     H5  104   1.739   3.989   3.042 -0.4570 -0.2432  0.2026
    5R02     C5  105   1.551   3.980   3.147  0.4658 -0.0286 -0.3338
    5R02     H6  106   1.533   4.087   3.151 -1.7403 -0.3897  0.8297
    5R02     C6  107   1.450   3.899   3.195 -0.0370  0.3497  0.8700
    5R02     H7  108   1.366   3.951   3.239  0.8672  2.3544  0.3478
    5R02     C7  109   1.466   3.758   3.191 -0.2244  0.3065  0.2623
    5R02     H8  110   1.384   3.696   3.226 -1.8191  1.7958 -0.6893
    5R02     C8  111   1.579   3.704   3.146 -0.5694  0.1831  0.3262
    5R02     H9  112   1.592   3.597   3.149  0.0911  0.1580 -1.6385
    5R02     CA  113   1.899   3.634   3.253  0.5066  0.2902  0.0835
    5R02    H10  114   1.799   3.588   3.252  1.2485 -1.4465  1.0143
    5R02    H11  115   1.889   3.686   3.350  1.9343  1.6297 -0.4491
    5R02      C  116   1.998   3.507   3.252 -0.2900  0.0997 -0.1535
    5R02      O  117   2.047   3.470   3.145 -0.4273  0.1703 -0.0944
    6R02      N  118   2.009   3.438   3.372 -0.1444  0.4069 -0.0763
    6R02     C1  119   1.929   3.475   3.496 -0.1183  0.8053 -0.7839
    6R02     H1  120   1.913   3.583   3.504  2.3479  1.1690  0.0790
    6R02     C2  121   1.792   3.414   3.459  0.4643 -0.3921 -0.4479
    6R02     H2  122   1.785   3.307   3.481  2.3012 -0.6358 -0.8966
    6R02     H3  123   1.772   3.424   3.351  0.1734 -1.7343 -0.5323
    6R02     H4  124   1.717   3.480   3.503  0.5147 -0.6836  0.0852
    6R02     C3  125   1.977   3.424   3.635 -0.4535 -0.7368 -0.6540
    6R02     C4  126   1.891   3.389   3.740  0.1281 -0.0568 -0.0023
    6R02     H5  127   1.784   3.409   3.729  0.4244  0.8463 -1.6042
    6R02     C5  128   1.936   3.325   3.860  0.2019  0.2887 -0.6441
    6R02     H6  129   1.865   3.293   3.936  0.2585  1.6531  0.0071
    6R02     C6  130   2.075   3.314   3.885  0.7347  0.9152  0.4655
    6R02     H7  131   2.109   3.260   3.973  2.6000  0.2960 -0.5784
    6R02     C7  132   2.163   3.353   3.786  0.0859 -0.0502  0.6286
    6R02     H8  133   2.270   3.344   3.804  0.3957  3.0173  0.9846
    6R02     C8  134   2.109   3.410   3.661 -0.4600 -0.3181 -0.0639
    6R02     H9  135   2.185   3.457   3.599  0.4788 -0.6180  0.8399
    6R02     CA  136   2.031   3.291   3.365  0.2453  0.3029  0.7620
    6R02    H10  137   1.962   3.245   3.293  0.3570 -0.4533  1.1200
    6R02    H11  138   1.983   3.237   3.447  1.8075 -2.1421  0.1987
    6R02      C  139   2.171   3.248   3.349  0.0415 -0.2457  0.3776
    6R02      O  140   2.267   3.322   3.361  0.2171  0.6451  0.1344
    7R02      N  141   2.185   3.114   3.338 -0.6775 -0.4458 -0.6387
    7R02     C1  142   2.283   3.047   3.426  0.5073  0.1564  1.3304
    7R02     H1  143   2.341   3.132   3.463  2.0867  0.7164 -2.0411
    7R02     C2  144   2.221   2.972   3.545  0.3716  0.5551 -0.3104
    7R02     H2  145   2.158   3.040   3.604 -0.2305 -0.6473  0.4520
    7R02     H3  146   2.302   2.930   3.606  0.2207 -0.5193 -0.8400
    7R02     H4  147   2.163   2.882   3.524  0.1384  0.1110  2.0025
    7R02     C3  148   2.385   2.956   3.343 -0.2092  0.0060  0.1482
    7R02     C4  149   2.409   2.822   3.378  0.4673 -0.3477  0.3118
    7R02     H5  150   2.354   2.769   3.456 -0.1335 -0.7523 -0.3700
    7R02     C5  151   2.494   2.745   3.300 -0.3927 -0.1752 -0.9190
    7R02     H6  152   2.497   2.640   3.330 -1.0530  0.1831  0.5124
    7R02     C6  153   2.563   2.801   3.192 -0.1279 -0.3608 -0.4784
    7R02     H7  154   2.629   2.741   3.130  0.6341  0.1356 -0.1713
    7R02     C7  155   2.548   2.936   3.167  0.3705 -0.3403  0.5390
    7R02     H8  156   2.600   2.981   3.083 -0.7801 -0.3564 -0.2047
    7R02     C8  157   2.458   3.016   3.237 -0.4471  0.3460 -0.6279
    7R02     H9  158   2.436   3.120   3.216  1.0695  0.4858 -1.6496
    7R02     CA  159   2.064   3.031   3.322 -0.1904 -1.1400 -0.4668
    7R02    H10  160   1.997   3.044   3.408 -0.1250 -1.8015 -0.3132
    7R02    H11  161   2.088   2.927   3.346 -1.7869 -1.1738  1.2179
    7R02      C  162   2.005   3.040   3.184  0.3239 -0.2949  0.1758
    7R02      O  163   1.907   2.979   3.149 -0.1585  0.5747 -0.5406
    8NH2      N  164   2.064   3.117   3.090 -0.1592  0.0268  0.9110
    8NH2     H1  165   2.151   3.163   3.109  0.7198 -1.7013  1.2869
    8NH2     H2  166   2.018   3.119   3.000 -0.5751 -0.7901  1.0838
    9CHL     CL  167   0.406   3.025   3.688  0.1961  0.1402 -0.0240
    9CHL      C  168   0.490   3.066   3.540 -0.1694  0.4147 -0.5359
    9CHL    CL1  169   0.677   3.044   3.582  0.0427 -0.0224  0.1620
    9CHL    CL2  170   0.447   2.956   3.411  0.0948  0.1413  0.0872
    9CHL      H  171   0.474   3.172   3.515  0.8034  0.3143 -1.6589
   10CHL     CL  172   3.640   0.155   2.356  0.2447  0.0958 -0.2427
   10CHL      C  173   3.725   0.017   2.262  0.2467 -0.4808  0.7743
   10CHL    CL1  174   3.890   0.068   2.209  0.1382  0.3180  0.1665
   10CHL    CL2  175   3.749  -0.128   2.356 -0.1328  0.0681 -0.2620
   10CHL      H  176   3.671  -0.014   2.172  3.1383 -2.4654 -0.4453
   11CHL     CL  177   2.780   0.532   2.482  0.0654  0.0556  0.1113
   11CHL      C  178   2.733   0.626   2.335 -0.0112  1.1511 -0.1303
   11CHL    CL1  179   2.872   0.748   2.306 -0.0595  0.1710 -0.1430
   11CHL    CL2  180   2.735   0.522   2.183  0.1571 -0.1311 -0.4323
   11CHL      H  181   2.632   0.667   2.348 -0.4863 -0.1827  0.5385
   12CHL     CL  182   2.744   2.125   3.716 -0.3296 -0.0279  0.2755
   12CHL      C  183   2.877   2.006   3.707 -0.2130 -0.0937  0.0388
   12CHL    CL1  184   2.824   1.845   3.753 -0.2548 -0.4124 -0.1023
   12CHL    CL2  185   2.951   2.002   3.536  0.2245 -0.2980  0.5764
   12CHL      H  186   2.954   2.044   3.776 -0.2316 -2.8421  1.6929
   13CHL     CL  187   1.120   2.951   0.438 -0.0774  0.2542  0.2396
   13CHL      C  188   0.961   2.878   0.489 -0.4472 -0.6700 -0.1102
   13CHL    CL1  189   0.988   2.717   0.558 -0.2371 -0.0966  0.0878
   13CHL    CL2  190   0.870   2.972   0.615 -0.0969  0.0296  0.3367
   13CHL      H  191   0.899   2.862   0.400 -2.3853 -0.7356  1.1988
   14CHL     CL  192   2.647   2.495   0.487  0.4516 -0.5005 -0.0416
   14CHL      C  193   2.687   2.338   0.403  0.2738  0.0397 -0.0895
   14CHL    CL1  194   2.831   2.356   0.298 -0.0601  0.2117 -0.2725
   14CHL    CL2  195   2.704   2.201   0.521  0.1736 -0.2200  0.4016
   14CHL      H  196   2.606   2.315   0.333  0.7407 -3.8313  0.3953
   15CHL     CL  197   2.103   0.685   3.145  0.2438  0.2285 -0.4098
   15CHL      C  198   2.254   0.741   3.203 -0.4674  0.2262 -0.2252
   15CHL    CL1  199   2.227   0.900   3.287 -0.4176  0.4642  0.0023
   15CHL    CL2  200   2.328   0.617   3.329 -0.1595  0.4248  0.2012
   15CHL      H  201   2.330   0.762   3.127  0.4007  2.3410  1.1105
   16CHL     CL  202   1.152   1.802   1.047 -0.0580  0.3492  0.0800
   16CHL      C  203   1.117   1.954   0.961 -0.6592 -0.0842  0.6735
   16CHL    CL1  204   0.946   1.960   0.903  0.1271  0.3098  0.1913
   16CHL    CL2  205   1.170   2.100   1.059  0.2635  0.2880  0.0602
   16CHL      H  206   1.184   1.953   0.874  1.9699 -2.1602  2.5874
   17CHL     CL  207   3.621   0.410   2.632 -0.5020  0.3854 -0.4593
   17CHL      C  208   3.749   0.300   2.697 -0.0358  0.5142  0.5899
   17CHL    CL1  209   3.799   0.356   2.868 -0.2797  0.1930  0.4040
   17CHL    CL2  210   3.683   0.130   2.690 -0.5060 -0.5459 -0.0939
   17CHL      H  211   3.835   0.307   2.629 -0.1379  0.8746  0.4942
   18CHL     CL  212   2.380   0.306   3.614  0.1616  0.2247  0.2915
   18CHL      C  213   2.334   0.436   3.742  0.5099 -0.3116 -0.5398
   18CHL    CL1  214   2.313   0.352   3.900 -0.2151 -0.1483 -0.1949
   18CHL    CL2  215   2.463   0.554   3.759 -0.0766 -0.2203 -0.0284
   18CHL      H  216   2.242   0.489   3.713  1.5984  2.3660  0.6361
   19CHL     CL  217   0.232   2.802   1.579 -0.2795 -0.1562  0.0774
   19CHL      C  218   0.207   2.856   1.750  0.8863  0.2771 -0.5775
   19CHL    CL1  219   0.323   2.766   1.838 -0.1947 -0.1038 -0.0461
   19CHL    CL2  220   0.236   3.029   1.764 -0.0334  0.0393  0.1757
   19CHL      H  221   0.111   2.828   1.795  0.2910  3.4994  0.4159
   20CHL     CL  222   3.331   0.772   3.389  0.5105  0.1691  0.1332
   20CHL      C  223   3.375   0.654   3.264  0.1442 -0.2606 -0.5056
   20CHL    CL1  224   3.248   0.646   3.136 -0.0230 -0.2759 -0.4375
   20CHL    CL2  225   3.520   0.699   3.173 -0.2010  0.0591 -0.0473
   20CHL      H  226   3.377   0.557   3.313 -2.2955 -0.7967 -1.3192
   21CHL     CL  227   3.779   3.052   3.365 -0.2834 -0.1521  0.0573
   21CHL      C  228   3.817   3.095   3.191 -0.1370  0.2172  0.0692
   21CHL    CL1  229   3.827   3.279   3.172 -0.1705 -0.0693 -0.2508
   21CHL    CL2  230   3.978   3.036   3.155  0.0193  0.1230 -0.3394
   21CHL      H  231   3.752   3.047   3.116  0.0768  0.2811 -0.1586
   22CHL     CL  232   0.544   1.083   1.803 -0.1076 -0.0955  0.1487
   22CHL      C  233   0.601   0.950   1.704  0.8223  0.6200  0.0453
   22CHL    CL1  234   0.523   0.969   1.540 -0.3200  0.1037  0.0526
   22CHL    CL2  235   0.771   0.955   1.676 -0.0641  0.3451 -0.4694
   22CHL      H  236   0.570   0.854   1.747  0.9841  0.8737  0.7417
   23CHL     CL  237   0.462   0.348   3.388  0.2895 -0.1607  0.1145
   23CHL      C  238   0.443   0.485   3.519  0.8204 -0.7893  0.5089
   23CHL    CL1  239   0.276   0.480   3.597 -0.1625  0.0722 -0.2510
   23CHL    CL2  240   0.552   0.449   3.651  0.9561 -0.3631 -0.2497
   23CHL      H  241   0.459   0.586   3.480  1.8804 -0.0201  2.7875
   24CHL     CL  242   3.248   0.646   0.731 -0.1312  0.3495 -0.1189
   24CHL      C  243   3.391   0.719   0.663 -0.2161 -0.1682 -0.7837
   24CHL    CL1  244   3.381   0.704   0.482  0.4159  0.3712 -0.0109
   24CHL    CL2  245   3.374   0.897   0.712 -0.2609 -0.2040  0.0332
   24CHL      H  246   3.478   0.670   0.707 -1.2590 -1.7030 -0.3292
   25CHL     CL  247   0.861   3.374   0.209 -0.2455 -0.3400 -0.0277
   25CHL      C  248   0.872   3.242   0.088 -0.0532  0.5027 -0.1424
   25CHL    CL1  249   0.974   3.301  -0.056 -0.1581 -0.1774  0.2612
   25CHL    CL2  250   0.936   3.086   0.153  0.4927  0.1119  0.1313
   25CHL      H  251   0.768   3.228   0.057  0.2696  1.4886 -1.7888
   26CHL     CL  252   2.165   0.794   2.220 -0.2343  0.2263 -0.8219
   26CHL      C  253   2.171   0.609   2.200 -0.6071  0.2186 -0.0110
   26CHL    CL1  254   2.123   0.547   2.039 -0.3965  0.0156  0.1208
   26CHL    CL2  255   2.341   0.528   2.226  0.1547 -0.3346 -0.1880
   26CHL      H  256   2.103   0.564   2.273  1.1194 -1.1439  0.8258
   27CHL     CL  257   1.350   3.280   1.415  0.1444  0.3445  0.3372
   27CHL      C  258   1.317   3.432   1.316 -0.0539 -0.0216 -0.4049
   27CHL    CL1  259   1.199   3.388   1.186  0.0317  0.1553  0.5299
   27CHL    CL2  260   1.251   3.560   1.422  0.1199 -0.1579  0.0615
   27CHL      H  261   1.408   3.465   1.264  0.7899 -2.7724 -0.8488
   28CHL     CL  262   1.080   1.798   2.264  0.4090  0.0333  0.0430
   28CHL      C  263   1.170   1.738   2.123  0.3693 -0.9736 -0.4393
   28CHL    CL1  264   1.195   1.558   2.150  0.1092  0.0230 -0.0668
   28CHL    CL2  265   1.073   1.778   1.971  0.2541 -0.0726 -0.0062
   28CHL      H  266   1.269   1.785   2.117  1.1866 -2.3998  0.9224
   29CHL     CL  267   3.021   2.067   3.160  0.1238  0.2568 -0.2359
   29CHL      C  268   3.049   2.197   3.044  0.7822  0.2091 -0.1871
   29CHL    CL1  269   3.190   2.136   2.944 -0.0620 -0.0364  0.4222
   29CHL    CL2  270   2.907   2.210   2.938  0.0569 -0.0744 -0.0788
   29CHL      H  271   3.088   2.291   3.085 -0.7688  0.7619  0.1131
   30CHL     CL  272   0.845   2.006   3.407 -0.5816 -0.4152 -0.0237
   30CHL      C  273   0.827   1.824   3.422 -0.3450 -1.4128 -0.2142
   30CHL    CL1  274   0.796   1.790   3.590 -0.1086  0.4918 -0.0413
   30CHL    CL2  275   0.687   1.770   3.320 -0.1996 -0.1318 -0.3556
   30CHL      H  276   0.913   1.772   3.379  1.5236  0.3590  1.1915
   31CHL     CL  277   1.353   0.099   2.402 -0.1062 -0.2430  0.0870
   31CHL      C  278   1.363  -0.053   2.304  0.3746 -0.9127  0.5585
   31CHL    CL1  279   1.504  -0.046   2.195  0.2319 -0.0253 -0.4011
   31CHL    CL2  280   1.382  -0.196   2.410  0.3480 -0.2907 -0.2603
   31CHL      H  281   1.272  -0.063   2.244  0.3906 -1.5381  0.6235
   32CHL     CL  282   0.222   0.828   1.736  0.2068  0.0758  0.2988
   32CHL      C  283   0.060   0.873   1.817  0.3393  0.1671  0.0987
   32CHL    CL1  284   0.034   0.749   1.950 -0.0488  0.4915 -0.2564
   32CHL    CL2  285   0.071   1.035   1.894  0.3214 -0.7588 -0.1050
   32CHL      H  286  -0.019   0.872   1.741  0.6540 -2.3135 -0.2789
   33CHL     CL  287   2.896   0.665   3.170 -0.0752 -0.5637  0.1771
   33CHL      C  288   2.888   0.631   2.992  0.4994 -0.3678  0.4597
   33CHL    CL1  289   2.714   0.627   2.945  0.0191 -0.1597  0.0074
   33CHL    CL2  290   2.977   0.753   2.902 -0.1933  0.4743  0.3019
   33CHL      H  291   2.925   0.534   2.959 -0.8858 -1.4431  1.8860
   34CHL     CL  292   2.846   3.663   1.256 -0.2429  0.3399  0.0511
   34CHL      C  293   2.977   3.744   1.168 -0.3824 -0.2482 -0.4199
   34CHL    CL1  294   3.137   3.714   1.256  0.5097  0.4595 -0.1391
   34CHL    CL2  295   2.982   3.675   1.001  0.4188 -0.0216 -0.3272
   34CHL      H  296   2.967   3.853   1.164 -1.5074 -0.3569 -1.0169
   35CHL     CL  297   1.049   0.490   0.465 -0.2768 -0.2382 -0.0356
   35CHL      C  298   1.128   0.622   0.364  0.9096  0.2023  0.1046
   35CHL    CL1  299   1.254   0.555   0.256 -0.0287  0.0999 -0.3971
   35CHL    CL2  300   1.009   0.717   0.266  0.0050 -0.3929  0.1833
   35CHL      H  301   1.181   0.685   0.437 -1.2839 -0.2797  2.2523
   36CHL     CL  302   1.818   0.764   1.901 -0.1869  0.2511  0.1793
   36CHL      C  303   1.666   0.838   1.853 -0.6671  0.4085 -0.2411
   36CHL    CL1  304   1.671   0.883   1.681 -0.2617  0.0128 -0.1972
   36CHL    CL2  305   1.517   0.738   1.899  0.0847 -0.1588 -0.0122
   36CHL      H  306   1.651   0.932   1.907 -2.9333 -0.3985  0.6811
   37CHL     CL  307   0.610   3.129   2.210  0.0487 -0.3933 -0.3063
   37CHL      C  308   0.648   3.173   2.047 -0.1645  0.0767 -0.0069
   37CHL    CL1  309   0.499   3.179   1.947  0.1549 -0.3023 -0.3893
   37CHL    CL2  310   0.733   3.328   2.041  0.4771 -0.0035  0.2264
   37CHL      H  311   0.703   3.088   2.004  1.4492  0.7354  0.6917
   38CHL     CL  312   1.630   2.764   0.561 -0.1364  0.3029 -0.2257
   38CHL      C  313   1.611   2.839   0.724 -0.0198  0.0538 -0.3966
   38CHL    CL1  314   1.548   3.011   0.714 -0.0190 -0.0148  0.1378
   38CHL    CL2  315   1.484   2.742   0.799 -0.0700  0.0194  0.4023
   38CHL      H  316   1.698   2.839   0.792  1.6955  2.0804 -2.4124
   39CHL     CL  317   1.314   3.319   2.781  0.3579  0.3517  0.1451
   39CHL      C  318   1.422   3.435   2.689 -0.5718 -0.1978 -1.0253
   39CHL    CL1  319   1.436   3.585   2.786 -0.1702  0.4827 -0.3919
   39CHL    CL2  320   1.587   3.360   2.681 -0.0689 -0.0317  0.1719
   39CHL      H  321   1.383   3.458   2.590 -1.0715 -2.7716 -1.4824
   40CHL     CL  322   3.702   3.547   1.694  0.0486 -0.1279 -0.1916
   40CHL      C  323   3.803   3.480   1.835 -0.7335 -0.3068  0.4004
   40CHL    CL1  324   3.925   3.609   1.873 -0.2279 -0.5956 -0.0095
   40CHL    CL2  325   3.700   3.439   1.981 -0.0707  0.0705  0.2805
   40CHL      H  326   3.865   3.392   1.815 -1.4631 -1.7081  3.6347
   41CHL     CL  327   1.036   2.920   3.529  0.2172 -0.0772 -0.0766
   41CHL      C  328   1.165   2.847   3.418  0.1605  0.2200  0.6174
   41CHL    CL1  329   1.120   2.693   3.330  0.3597 -0.1773 -0.4055
   41CHL    CL2  330   1.241   2.966   3.305 -0.4822  0.0621  0.0577
   41CHL      H  331   1.247   2.815   3.483  1.7635  1.9669 -0.4221
   42CHL     CL  332   3.733   2.235   3.282 -0.0608  0.5878 -0.0083
   42CHL      C  333   3.587   2.352   3.284  0.7861  0.0887 -0.0521
   42CHL    CL1  334   3.532   2.374   3.453 -0.1433 -0.3682  0.1467
   42CHL    CL2  335   3.618   2.517   3.239  0.0031 -0.1374  0.2301
   42CHL      H  336   3.507   2.314   3.219  0.6786 -1.0684  0.7166
   43CHL     CL  337   1.048   1.338   0.798  0.2325  0.1321 -0.0777
   43CHL      C  338   0.903   1.436   0.840 -0.8604 -0.2500 -0.3589
   43CHL    CL1  339   0.767   1.319   0.887 -0.3159 -0.1082  0.0418
   43CHL    CL2  340   0.937   1.544   0.974 -0.2388 -0.2100 -0.1444
   43CHL      H  341   0.872   1.502   0.759 -2.7505  0.7200  1.0764
   44CHL     CL  342   2.698   0.333   0.162 -0.0802  0.2141  0.2538
   44CHL      C  343   2.653   0.182   0.090 -0.4423  0.1110  0.5298
   44CHL    CL1  344   2.721   0.166  -0.080  0.2147 -0.2787  0.0285
   44CHL    CL2  345   2.726   0.055   0.191 -0.1278 -0.1689 -0.1356
   44CHL      H  346   2.545   0.164   0.092 -0.4613  0.1718  0.1553
   45CHL     CL  347   0.186   1.480   1.071 -0.4286 -0.3231  0.0589
   45CHL      C  348   0.134   1.440   0.897  0.3134  0.2446  0.3748
   45CHL    CL1  349   0.012   1.558   0.842 -0.0358 -0.1178  0.0440
   45CHL    CL2  350   0.291   1.440   0.799 -0.2596 -0.0324  0.0198
   45CHL      H  351   0.094   1.338   0.893 -0.1791  0.4671 -0.8018
   46CHL     CL  352   2.571   0.892   3.598 -0.1205 -0.1283 -0.3197
   46CHL      C  353   2.684   0.853   3.737  0.3319 -0.2149  0.0901
   46CHL    CL1  354   2.850   0.875   3.678 -0.0489 -0.4488  0.0131
   46CHL    CL2  355   2.644   0.960   3.870  0.1161 -0.0720  0.1722
   46CHL      H  356   2.666   0.749   3.767  0.4866 -0.5144 -0.8378
   47CHL     CL  357   1.694   1.133   3.419 -0.1370 -0.3324 -0.0741
   47CHL      C  358   1.705   0.955   3.426 -0.2960  0.3420  0.7898
   47CHL    CL1  359   1.555   0.879   3.510  0.0419  0.0194  0.0830
   47CHL    CL2  360   1.745   0.896   3.260  0.3566  0.0720  0.1653
   47CHL      H  361   1.793   0.946   3.490 -0.1895 -0.7839  0.5118
   48CHL     CL  362   2.043   1.169   1.016  0.2934  0.1185  0.1876
   48CHL      C  363   1.870   1.117   1.044  0.0958  0.4163  0.1177
   48CHL    CL1  364   1.819   1.005   0.911  0.1976 -0.2198  0.3565
   48CHL    CL2  365   1.837   1.034   1.197 -0.2830  0.1537 -0.1530
   48CHL      H  366   1.801   1.202   1.050 -0.4699 -0.1262  2.1512
   49CHL     CL  367   1.326   0.642   0.968  0.4289 -0.2797  0.1057
   49CHL      C  368   1.279   0.569   0.807  0.2514  0.1689 -0.1652
   49CHL    CL1  369   1.134   0.460   0.822  0.1051 -0.4585 -0.3047
   49CHL    CL2  370   1.230   0.705   0.690  0.3816  0.2840 -0.1818
   49CHL      H  371   1.366   0.513   0.774  0.0677  1.0416 -2.3034
   50CHL     CL  372   1.016   0.177   1.204  0.2062  0.0425  0.2027
   50CHL      C  373   1.005   0.338   1.277 -0.2889 -0.8673 -0.5454
   50CHL    CL1  374   1.144   0.371   1.379  0.1340  0.0270  0.0823
   50CHL    CL2  375   0.992   0.463   1.149  0.3872  0.1316  0.1357
   50CHL      H  376   0.919   0.341   1.346  0.1685 -1.4908  0.0618
   51CHL     CL  377   2.994   1.013   3.126 -0.3762 -0.0919 -0.2361
   51CHL      C  378   3.056   1.088   3.275 -0.2977 -0.3517  0.1001
   51CHL    CL1  379   3.032   0.995   3.419  0.2197  0.2513  0.4066
   51CHL    CL2  380   3.229   1.125   3.266  0.1353 -0.5725  0.1165
   51CHL      H  381   3.003   1.182   3.295  1.0458  0.6911 -1.0852
   52CHL     CL  382   0.693   0.413   0.818  0.1090 -0.1710  0.1585
   52CHL      C  383   0.662   0.275   0.706  0.9302  0.4249  0.1063
   52CHL    CL1  384   0.767   0.137   0.766 -0.1536  0.2167  0.2416
   52CHL    CL2  385   0.496   0.217   0.687  0.2606 -0.3420 -0.2954
   52CHL      H  386   0.694   0.308   0.606  1.0459  0.2571  0.0871
   53CHL     CL  387   1.594   2.572   1.120  0.0073  0.4601 -0.2427
   53CHL      C  388   1.422   2.495   1.115  0.6172 -1.1216  0.1056
   53CHL    CL1  389   1.385   2.429   0.961 -0.1384 -0.3429 -0.1271
   53CHL    CL2  390   1.415   2.373   1.239 -0.0437  0.0878  0.3746
   53CHL      H  391   1.354   2.575   1.145 -0.8111 -1.8274 -1.1514
   54CHL     CL  392   2.230   1.684   3.490 -0.1545  0.2104 -0.2282
   54CHL      C  393   2.070   1.777   3.539  0.1772 -0.0268  0.0706
   54CHL    CL1  394   1.975   1.688   3.653  0.4070 -0.1223 -0.4774
   54CHL    CL2  395   2.116   1.930   3.621  0.1646  0.2363  0.2724
   54CHL      H  396   2.009   1.811   3.455 -1.3948  1.6410  1.8120
   55CHL     CL  397   0.360   1.255   2.208 -0.8649 -0.0056 -0.3516
   55CHL      C  398   0.212   1.273   2.312 -0.3982 -0.3338  0.0798
   55CHL    CL1  399   0.266   1.372   2.449  0.3885  0.7434  0.3106
   55CHL    CL2  400   0.096   1.369   2.230  0.2401 -0.0266 -0.0962
   55CHL      H  401   0.171   1.178   2.349 -0.8010 -0.0720  0.3137
   56CHL     CL  402   2.960   0.925   1.680 -0.4982 -0.0641  0.2371
   56CHL      C  403   2.787   0.929   1.628 -0.2075  0.1311  0.5983
   56CHL    CL1  404   2.777   1.024   1.471  0.2774 -0.5844 -0.2079
   56CHL    CL2  405   2.720   0.769   1.585 -0.1043 -0.3093 -0.0087
   56CHL      H  406   2.722   0.962   1.710  1.6945 -1.7092  2.9664
   57CHL     CL  407   1.308   3.462   3.514 -0.0319 -0.2706 -0.6067
   57CHL      C  408   1.363   3.328   3.402 -0.3371  0.0772 -0.2270
   57CHL    CL1  409   1.477   3.404   3.285  0.2166 -0.3389  0.0128
   57CHL    CL2  410   1.443   3.209   3.505 -0.3301  0.0302  0.2161
   57CHL      H  411   1.281   3.283   3.345 -0.5388  2.1026 -1.6314
   58CHL     CL  412   0.215   2.044   0.913  0.1103  0.0213  0.3654
   58CHL      C  413   0.238   2.218   0.950 -0.0034  0.0025  0.2741
   58CHL    CL1  414   0.332   2.238   1.102 -0.0967  0.1820 -0.0221
   58CHL    CL2  415   0.319   2.288   0.800 -0.0587 -0.1176 -0.1525
   58CHL      H  416   0.137   2.259   0.962  0.3971  0.5750  2.0807
   59CHL     CL  417   3.766   3.044   2.010 -0.5569 -0.1645  0.3810
   59CHL      C  418   3.592   3.088   1.964 -0.2966  0.7215  0.1450
   59CHL    CL1  419   3.588   3.172   1.802  0.3709 -0.0824  0.2155
   59CHL    CL2  420   3.470   2.950   1.979 -0.5356 -0.0820  0.0924
   59CHL      H  421   3.567   3.170   2.032  0.1505  1.8682 -1.0312
   60CHL     CL  422   1.649   0.239   1.232  0.0038 -0.0880 -0.9323
   60CHL      C  423   1.474   0.239   1.237 -0.7448 -1.1026  0.0145
   60CHL    CL1  424   1.399   0.321   1.098 -0.0267  0.1659 -0.1058
   60CHL    CL2  425   1.435   0.063   1.238 -0.0767 -0.0877  0.2788
   60CHL      H  426   1.450   0.292   1.330 -1.3815 -1.6096  0.1448
   61CHL     CL  427   2.522   3.416   1.042 -0.0666 -0.0510  0.1624
   61CHL      C  428   2.491   3.301   0.903  0.3482  0.2110 -0.1382
   61CHL    CL1  429   2.394   3.158   0.964  0.0914 -0.0962 -0.4094
   61CHL    CL2  430   2.383   3.393   0.786  0.4106  0.4357  0.0970
   61CHL      H  431   2.581   3.265   0.851 -1.0497 -1.2948 -1.6307
   62CHL     CL  432   0.601   1.174   2.559  0.1799  0.4053  0.0931
   62CHL      C  433   0.708   1.036   2.630 -0.1465 -0.2951  0.0679
   62CHL    CL1  434   0.589   0.901   2.674  0.0579  0.2605 -0.1464
   62CHL    CL2  435   0.828   0.992   2.499  0.2972 -0.1647 -0.1689
   62CHL      H  436   0.761   1.058   2.722  0.7298 -2.7753  0.2517
   63CHL     CL  437   3.392   1.267   2.927  0.2359  0.2991  0.2592
   63CHL      C  438   3.468   1.420   2.899 -0.4186 -0.2480 -0.2142
   63CHL    CL1  439   3.418   1.505   2.752  0.5253 -0.0918 -0.2945
   63CHL    CL2  440   3.438   1.523   3.048 -0.4725 -0.4752 -0.6281
   63CHL      H  441   3.576   1.408   2.885 -0.0449 -0.3657  2.3058
   64CHL     CL  442   3.313   0.240   2.675  0.0755  0.2314 -0.5597
   64CHL      C  443   3.157   0.220   2.769 -0.2024  0.6525  0.5546
   64CHL    CL1  444   3.185   0.118   2.917  0.1789 -0.0994  0.1090
   64CHL    CL2  445   3.099   0.385   2.804  0.0240 -0.2246 -0.3140
   64CHL      H  446   3.077   0.180   2.705 -0.3274  2.0962 -0.2574
   65CHL     CL  447   3.302   3.151   0.063  0.5156  0.1492  0.1604
   65CHL      C  448   3.149   3.188  -0.018  0.1736 -0.2174 -0.5043
   65CHL    CL1  449   3.165   3.300  -0.168  0.0250 -0.0397 -0.1223
   65CHL    CL2  450   3.073   3.030  -0.070 -0.3450 -0.3245  0.0892
   65CHL      H  451   3.079   3.237   0.050  2.4255  0.9795  1.0939
   66CHL     CL  452   2.031   0.650   0.972 -0.5825  0.3040  0.3337
   66CHL      C  453   1.907   0.595   1.089 -0.0287 -0.1473 -0.7910
   66CHL    CL1  454   1.739   0.593   1.015  0.0436 -0.0688 -0.3980
   66CHL    CL2  455   1.934   0.430   1.140  0.1941  0.1774 -0.0583
   66CHL      H  456   1.899   0.658   1.178 -3.0070 -0.6344 -0.6111
   67CHL     CL  457   1.435   3.102   1.137  0.1714  0.0434  0.2672
   67CHL      C  458   1.601   3.047   1.183  0.2312  0.4401  0.2983
   67CHL    CL1  459   1.581   2.940   1.336 -0.3037 -0.1467  0.1297
   67CHL    CL2  460   1.666   2.940   1.051 -0.2526 -0.2482  0.1775
   67CHL      H  461   1.655   3.141   1.200  0.7951  0.0662  0.5940
   68CHL     CL  462   1.405   1.917   2.981 -0.0916  0.3862 -0.2483
   68CHL      C  463   1.247   1.828   3.005 -0.4425 -0.0798  0.4361
   68CHL    CL1  464   1.235   1.714   3.155 -0.2630 -0.2779 -0.1061
   68CHL    CL2  465   1.103   1.946   3.020 -0.2085  0.0263  0.0458
   68CHL      H  466   1.235   1.769   2.914  0.5790  3.5310 -2.3169
   69CHL     CL  467   2.459   2.506   2.458  0.2469  0.1139  0.3190
   69CHL      C  468   2.368   2.485   2.609 -0.4694 -0.7376 -0.1464
   69CHL    CL1  469   2.246   2.366   2.580 -0.1079 -0.2874 -0.2123
   69CHL    CL2  470   2.483   2.436   2.745 -0.2143  0.0850  0.2043
   69CHL      H  471   2.323   2.584   2.628  1.3043 -0.1491  1.3648
   70CHL     CL  472   2.258   3.235   1.968  0.2949  0.0390 -0.0710
   70CHL      C  473   2.102   3.165   2.040 -0.3292 -0.4773 -0.0401
   70CHL    CL1  474   2.090   2.985   1.996  0.0033  0.2558  0.1622
   70CHL    CL2  475   2.104   3.178   2.222 -0.5189 -0.3114  0.1112
   70CHL      H  476   2.017   3.217   1.994  0.8999  0.1972 -1.6176
   71CHL     CL  477   1.609   2.125   1.094  0.1952  0.0788 -0.4004
   71CHL      C  478   1.668   1.972   1.166 -0.5773 -0.0302 -0.2121
   71CHL    CL1  479   1.783   2.012   1.290 -0.1610  0.0207 -0.1137
   71CHL    CL2  480   1.528   1.881   1.245  0.4213 -0.6204 -0.0050
   71CHL      H  481   1.712   1.911   1.087 -1.7262  0.8042 -1.5367
   72CHL     CL  482   3.446   1.249   0.564 -0.2026  0.1187  0.0005
   72CHL      C  483   3.548   1.208   0.431 -0.0902  0.2745  0.3346
   72CHL    CL1  484   3.575   1.030   0.438  0.4776 -0.0362  0.0488
   72CHL    CL2  485   3.471   1.247   0.281  0.3578  0.3344 -0.0678
   72CHL      H  486   3.645   1.259   0.442 -0.1963  0.6696 -0.5247
   73CHL     CL  487   1.858   0.918   2.265  0.1132 -0.6144 -0.0990
   73CHL      C  488   1.786   0.963   2.429 -1.1480  0.0157  0.9351
   73CHL    CL1  489   1.641   1.059   2.397 -0.1449  0.0567 -0.1153
   73CHL    CL2  490   1.759   0.804   2.520  0.5102  0.2418 -0.1468
   73CHL      H  491   1.855   1.029   2.483  1.8600 -1.1001 -1.3135
   74CHL     CL  492   3.781   3.072   1.514  0.2376 -0.3097 -0.0391
   74CHL      C  493   3.638   2.969   1.517 -0.2029  0.0433 -0.6937
   74CHL    CL1  494   3.622   2.879   1.361  0.0673  0.5008  0.0542
   74CHL    CL2  495   3.637   2.845   1.652  0.1403  0.0335  0.1197
   74CHL      H  496   3.552   3.035   1.528 -1.1694 -1.3074  0.2512
   75CHL     CL  497   0.395   3.712   1.128 -0.0804 -0.0313 -0.1855
   75CHL      C  498   0.433   3.855   1.018  0.2901  0.5707 -0.4593
   75CHL    CL1  499   0.287   3.966   1.001 -0.0495  0.3461  0.4335
   75CHL    CL2  500   0.568   3.944   1.097  0.1513 -0.4990 -0.1495
   75CHL      H  501   0.460   3.819   0.919 -0.3801  0.4451 -0.6014
   76CHL     CL  502   0.952   2.573   1.762  0.2079 -0.2967 -0.3145
   76CHL      C  503   0.821   2.632   1.651 -0.2847  0.0332  0.6461
   76CHL    CL1  504   0.683   2.690   1.737  0.0899  0.2114  0.0177
   76CHL    CL2  505   0.863   2.764   1.529 -0.2936  0.3433 -0.1478
   76CHL      H  506   0.785   2.548   1.590 -1.0026 -0.3365  1.5694
   77CHL     CL  507   0.584   2.197   1.301  0.2870 -0.2964 -0.1828
   77CHL      C  508   0.537   2.316   1.425 -0.3903  0.4534  0.0511
   77CHL    CL1  509   0.664   2.312   1.564 -0.2020  0.0932 -0.3935
   77CHL    CL2  510   0.534   2.481   1.343 -0.0641 -0.0823  0.2065
   77CHL      H  511   0.438   2.288   1.462  0.4134 -2.2272  0.3589
   78CHL     CL  512   0.328   2.380   0.368 -0.1146 -0.2681 -0.0096
   78CHL      C  513   0.208   2.362   0.239  0.6631 -0.2338  0.8047
   78CHL    CL1  514   0.044   2.350   0.308 -0.0113 -0.2343 -0.0289
   78CHL    CL2  515   0.206   2.505   0.133  0.1104  0.2496 -0.0879
   78CHL      H  516   0.230   2.273   0.181 -0.4465  0.4106 -0.6702
   79CHL     CL  517   0.286   0.772   2.567  0.2073 -0.2097 -0.1123
   79CHL      C  518   0.205   0.895   2.670  0.7904  0.6438  0.1858
   79CHL    CL1  519   0.240   0.876   2.852  0.0874 -0.1650 -0.1390
   79CHL    CL2  520   0.263   1.063   2.628 -0.1519 -0.9011 -0.1795
   79CHL      H  521   0.097   0.884   2.661  0.8154 -0.2873  0.8909
   80CHL     CL  522   2.231   3.294   1.551  0.0024  0.1273 -0.1489
   80CHL      C  523   2.210   3.133   1.477  0.3016  0.6387 -0.8319
   80CHL    CL1  524   2.126   3.024   1.591  0.2602 -0.2071  0.1389
   80CHL    CL2  525   2.124   3.132   1.316 -0.2152 -0.1456  0.2353
   80CHL      H  526   2.307   3.085   1.464 -0.8276 -2.6544  1.6084
   81CHL     CL  527   3.581   2.701   3.556  0.1097  0.3553 -0.0223
   81CHL      C  528   3.514   2.849   3.497 -0.0387 -0.4040  0.6954
   81CHL    CL1  529   3.402   2.829   3.364 -0.1724  0.3047 -0.3128
   81CHL    CL2  530   3.405   2.911   3.635 -0.0854 -0.1913  0.2608
   81CHL      H  531   3.603   2.909   3.479  0.0542 -0.3697  1.2320
   82CHL     CL  532   3.668   2.772   2.251  0.0403 -0.0624 -0.0959
   82CHL      C  533   3.736   2.608   2.260 -0.3725 -0.7478 -0.4643
   82CHL    CL1  534   3.604   2.484   2.243  0.1404  0.4314  0.4373
   82CHL    CL2  535   3.868   2.586   2.136 -0.0016 -0.3715  0.1007
   82CHL      H  536   3.783   2.600   2.359 -0.2763 -0.7111 -0.5071
   83CHL     CL  537   1.608   2.762   2.943 -0.0732 -0.3995 -0.4271
   83CHL      C  538   1.790   2.740   2.936  0.8217  0.8804 -0.5143
   83CHL    CL1  539   1.838   2.579   2.869  0.0734  0.1209  0.3419
   83CHL    CL2  540   1.869   2.871   2.849  0.2962 -0.1090 -0.0859
   83CHL      H  541   1.823   2.739   3.041  0.0813 -1.0274 -0.2558
   84CHL     CL  542   3.507   2.191   1.507 -0.4844 -0.1061  0.0391
   84CHL      C  543   3.457   2.356   1.556 -0.0898 -0.4758  0.5899
   84CHL    CL1  544   3.486   2.462   1.407  0.1258  0.0588 -0.1670
   84CHL    CL2  545   3.289   2.366   1.612 -0.2997  0.3830  0.2622
   84CHL      H  546   3.525   2.398   1.631  0.1501  2.8156 -1.2699
   85CHL     CL  547   1.109   0.697   3.143  0.2705  0.5010  0.3380
   85CHL      C  548   1.018   0.566   3.232 -0.7005 -0.4220  0.3106
   85CHL    CL1  549   0.871   0.517   3.150 -0.0968  0.0387 -0.1637
   85CHL    CL2  550   1.128   0.418   3.264 -0.3023 -0.2079  0.3842
   85CHL      H  551   0.979   0.598   3.329  1.8293 -0.6109  1.4716
   86CHL     CL  552   3.280   3.796   2.231 -0.0001 -0.0590 -0.0308
   86CHL      C  553   3.225   3.697   2.369  0.5103  0.0591  0.9201
   86CHL    CL1  554   3.363   3.683   2.482  0.1405 -0.1669  0.1545
   86CHL    CL2  555   3.094   3.784   2.461  0.1002 -0.3679  0.2079
   86CHL      H  556   3.186   3.599   2.339  2.8569 -0.1176 -1.9627
   87CHL     CL  557   0.996   2.361   2.755  0.0077 -0.0881 -0.1813
   87CHL      C  558   1.070   2.197   2.748  0.3254 -0.9334 -0.0881
   87CHL    CL1  559   1.065   2.128   2.584 -0.3022 -0.0951  0.1139
   87CHL    CL2  560   1.240   2.207   2.807 -0.3292 -0.1251 -0.0291
   87CHL      H  561   1.024   2.122   2.813 -1.5568  0.2469  0.0105
   88CHL     CL  562   0.408   2.766   2.193  0.1233 -0.0238  0.1422
   88CHL      C  563   0.339   2.894   2.296 -0.8882  0.6016  0.0760
   88CHL    CL1  564   0.250   2.994   2.185 -0.2679  0.0021 -0.2190
   88CHL    CL2  565   0.239   2.833   2.421 -0.1586 -0.1832 -0.4125
   88CHL      H  566   0.425   2.943   2.343  0.6891 -1.2250 -0.7383
   89CHL     CL  567   3.084   0.203   3.710 -0.1127  0.1808  0.1701
   89CHL      C  568   3.156   0.045   3.710 -0.5605  0.3247 -0.9350
   89CHL    CL1  569   3.322   0.051   3.793  0.3623  0.0266 -0.1372
   89CHL    CL2  570   3.039  -0.076   3.788 -0.0670 -0.1410  0.0160
   89CHL      H  571   3.170   0.004   3.609  0.1713  1.3705 -1.2831
   90CHL     CL  572   0.307   2.171   2.617 -0.0243 -0.1727  0.0294
   90CHL      C  573   0.282   2.282   2.474  0.4443  0.0230 -0.1695
   90CHL    CL1  574   0.131   2.371   2.500 -0.0377  0.1188  0.2381
   90CHL    CL2  575   0.406   2.403   2.466 -0.1266 -0.1377 -0.0143
   90CHL      H  576   0.275   2.233   2.376 -2.8807 -0.5046  0.2065
   91CHL     CL  577   2.970   1.339   1.725 -0.2110  0.3331  0.2197
   91CHL      C  578   3.139   1.270   1.740  0.6195  0.0148 -0.0635
   91CHL    CL1  579   3.237   1.300   1.590  0.1135  0.0513 -0.0092
   91CHL    CL2  580   3.224   1.340   1.879  0.3537 -0.4540  0.4948
   91CHL      H  581   3.145   1.161   1.752  1.7415 -0.5061 -4.0021
   92CHL     CL  582   2.760   1.835   3.071  0.2125  0.0766  0.3982
   92CHL      C  583   2.650   1.697   3.061  0.7093  0.2093 -0.7095
   92CHL    CL1  584   2.701   1.556   3.155 -0.1158  0.0056  0.0985
   92CHL    CL2  585   2.490   1.752   3.120 -0.1107 -0.1317 -0.2481
   92CHL      H  586   2.651   1.666   2.956  0.2283 -1.5798 -0.2153
   93CHL     CL  587   0.753   3.197   1.307 -0.0816 -0.0989  0.0463
   93CHL      C  588   0.896   3.134   1.219 -0.7622  0.0293  0.2811
   93CHL    CL1  589   1.012   3.060   1.332 -0.2618  0.2776  0.4076
   93CHL    CL2  590   0.860   3.008   1.088 -0.2606  0.5672  0.2582
   93CHL      H  591   0.943   3.209   1.155 -1.5129 -0.6715 -1.1375
   94CHL     CL  592   1.041   1.629   0.248  0.4464  0.5053  0.2715
   94CHL      C  593   1.220   1.589   0.279  0.3046  0.1084  0.1186
   94CHL    CL1  594   1.255   1.597   0.452 -0.3633 -0.0099 -0.3866
   94CHL    CL2  595   1.263   1.425   0.219 -0.0086 -0.0332 -0.1176
   94CHL      H  596   1.289   1.657   0.227 -1.6868  1.0018 -1.4684
   95CHL     CL  597   1.255   1.319   2.801  0.2419 -0.5904  0.3798
   95CHL      C  598   1.331   1.307   2.638  0.0640  0.6691  0.1114
   95CHL    CL1  599   1.365   1.134   2.601 -0.4479 -0.2662  0.2545
   95CHL    CL2  600   1.200   1.360   2.510  0.1662 -0.3752  0.2998
   95CHL      H  601   1.421   1.369   2.635  0.8718 -0.3052  2.0923
   96CHL     CL  602   1.958   2.473   0.027 -0.2475 -0.1717  0.4241
   96CHL      C  603   1.849   2.343  -0.029 -0.2884  0.2826  0.7583
   96CHL    CL1  604   1.796   2.380  -0.198  0.5388 -0.3432 -0.3817
   96CHL    CL2  605   1.940   2.189  -0.018  0.0953 -0.1999 -0.3686
   96CHL      H  606   1.753   2.333   0.023 -1.4620  1.3325 -1.0564
   97CHL     CL  607   3.226   0.978   2.044  0.1442  0.0526  0.3149
   97CHL      C  608   3.172   0.994   2.219  0.0993  0.1833  0.3906
   97CHL    CL1  609   3.301   0.930   2.320 -0.2332  0.3589 -0.1084
   97CHL    CL2  610   3.132   1.164   2.256 -0.0689  0.1020  0.0002
   97CHL      H  611   3.084   0.932   2.241  1.0930 -1.1605  0.6583
   98CHL     CL  612   1.386   1.037   2.175 -0.3872  0.2291  0.3368
   98CHL      C  613   1.210   1.026   2.185  0.1490 -0.6144 -0.0766
   98CHL    CL1  614   1.158   1.183   2.100 -0.2140  0.1174 -0.2096
   98CHL    CL2  615   1.155   0.879   2.100  0.3055  0.2026  0.2649
   98CHL      H  616   1.169   1.030   2.286 -1.3420  2.7529 -0.6781
   99CHL     CL  617   3.242   2.310   0.760  0.2383 -0.1620 -0.3556
   99CHL      C  618   3.221   2.251   0.587 -0.5216  0.4389  0.2878
   99CHL    CL1  619   3.317   2.101   0.565 -0.4052 -0.1287 -0.3215
   99CHL    CL2  620   3.045   2.234   0.551 -0.3057 -0.2046  0.1775
   99CHL      H  621   3.262   2.324   0.516  2.2801 -3.1893 -2.2251
  100CHL     CL  622   0.009   0.961   0.787 -0.2965  0.0399 -0.4305
  100CHL      C  623  -0.085   1.107   0.747  0.6582  0.5974 -0.2792
  100CHL    CL1  624  -0.132   1.192   0.896 -0.1968  0.2659  0.0659
  100CHL    CL2  625   0.016   1.228   0.651  0.5386  0.4099  0.1196
  100CHL      H  626  -0.174   1.077   0.692  1.6126  1.4637 -2.4017
  101CHL     CL  627   0.881   3.439   3.054 -0.3148 -0.1302 -0.3293
  101CHL      C  628   1.037   3.445   2.971 -0.6720  0.1807 -0.3997
  101CHL    CL1  629   1.049   3.548   2.828  0.3599  0.0341  0.4776
  101CHL    CL2  630   1.165   3.500   3.093 -0.0408 -0.0047 -0.3600
  101CHL      H  631   1.058   3.342   2.944  0.6248 -0.2430  1.9574
  102CHL     CL  632   0.329   1.920   1.984  0.1500 -0.3164 -0.5913
  102CHL      C  633   0.493   1.931   1.909  0.1817 -0.1191 -0.2002
  102CHL    CL1  634   0.493   2.069   1.804  0.0467 -0.0290 -0.6175
  102CHL    CL2  635   0.616   1.935   2.039 -0.0060  0.2663 -0.4297
  102CHL      H  636   0.501   1.842   1.847 -1.8910  0.2780 -1.1208
  103CHL     CL  637   2.122   0.320   3.336  0.2259 -0.1404  0.1777
  103CHL      C  638   1.963   0.345   3.283  0.0995 -0.0088  0.2202
  103CHL    CL1  639   1.948   0.352   3.108  0.5143 -0.2848 -0.3114
  103CHL    CL2  640   1.876   0.198   3.345  0.3448  0.0210  0.1017
  103CHL      H  641   1.912   0.430   3.329 -1.2569 -1.7437  2.0803
  104CHL     CL  642   3.390   1.696   2.182 -0.0633 -0.1048  0.1918
  104CHL      C  643   3.559   1.752   2.227  0.3145 -0.1544 -0.1677
  104CHL    CL1  644   3.680   1.655   2.140  0.5650  0.5525  0.0474
  104CHL    CL2  645   3.586   1.927   2.206 -0.1686 -0.5102 -0.0077
  104CHL      H  646   3.571   1.732   2.334  0.0924 -0.7214 -0.2471
  105CHL     CL  647   2.177   2.608   0.352 -0.0248  0.1784 -0.1214
  105CHL      C  648   2.010   2.552   0.362 -0.1501  0.1509 -0.6170
  105CHL    CL1  649   1.987   2.513   0.534 -0.0972 -0.0819 -0.3745
  105CHL    CL2  650   1.897   2.678   0.299  0.2485 -0.3690 -0.0928
  105CHL      H  651   2.004   2.456   0.309 -0.5399 -1.0132  1.4268
  106CHL     CL  652   2.488   2.840   0.219  0.2846 -0.1679 -0.4671
  106CHL      C  653   2.367   2.964   0.173  0.4730 -0.1454  1.3373
  106CHL    CL1  654   2.261   3.003   0.312  0.1554 -0.2932  0.3076
  106CHL    CL2  655   2.451   3.114   0.104 -0.2493  0.0461 -0.1508
  106CHL      H  656   2.309   2.921   0.091  1.2873  0.6116  0.3510
  107CHL     CL  657   2.121   3.092   2.686 -0.2680 -0.3808 -0.2156
  107CHL      C  658   2.017   3.220   2.611 -0.2005 -0.2444 -0.7843
  107CHL    CL1  659   1.884   3.270   2.724 -0.0212 -0.2926 -0.0478
  107CHL    CL2  660   2.119   3.357   2.561  0.0711 -0.0447  0.2874
  107CHL      H  661   1.959   3.176   2.529 -1.1874  0.1559 -0.3258
  108CHL     CL  662   0.445   3.556   2.121  0.0346 -0.0136 -0.2758
  108CHL      C  663   0.285   3.525   2.190 -0.0937  0.2561 -0.3857
  108CHL    CL1  664   0.229   3.371   2.122 -0.1394  0.2893  0.1361
  108CHL    CL2  665   0.297   3.504   2.375  0.0573  0.0727  0.0180
  108CHL      H  666   0.213   3.607   2.182 -3.7072 -2.4290  1.5291
  109CHL     CL  667   1.641   1.238   1.986  0.2531 -0.2960  0.0930
  109CHL      C  668   1.672   1.331   2.142  0.5598 -0.1670  0.1754
  109CHL    CL1  669   1.824   1.421   2.098 -0.2872 -0.1022  0.0557
  109CHL    CL2  670   1.541   1.448   2.168  0.4214 -0.2832  0.3421
  109CHL      H  671   1.681   1.256   2.221  2.2076  0.0522  0.2343
  110CHL     CL  672   1.190   0.266   2.934  0.2762  0.1913 -0.1662
  110CHL      C  673   1.265   0.148   2.828  0.1548  0.0465  0.6462
  110CHL    CL1  674   1.152   0.095   2.705 -0.3215 -0.3911  0.0319
  110CHL    CL2  675   1.411   0.205   2.750 -0.6371 -0.3386 -0.2183
  110CHL      H  676   1.286   0.060   2.889 -0.1022  1.1345  2.3835
  111CHL     CL  677   1.387   2.208   3.224  0.3574  0.2125 -0.0959
  111CHL      C  678   1.500   2.348   3.185  0.4329 -0.2450 -0.2167
  111CHL    CL1  679   1.439   2.516   3.217  0.0209 -0.2906  0.2210
  111CHL    CL2  680   1.657   2.319   3.268  0.5278  0.6803  0.2421
  111CHL      H  681   1.529   2.349   3.079  1.3077  1.3042  0.0191
  112CHL     CL  682   0.443   0.599   1.374  0.1540 -0.5241  0.3156
  112CHL      C  683   0.446   0.526   1.212  0.2133  0.2105 -0.1655
  112CHL    CL1  684   0.330   0.620   1.109 -0.2853  0.1669 -0.2911
  112CHL    CL2  685   0.612   0.529   1.150  0.3406  0.4020 -0.2296
  112CHL      H  686   0.416   0.422   1.226 -0.2140  0.0371 -2.0703
  113CHL     CL  687   2.616   0.494   1.744  0.4502  0.2083  0.0257
  113CHL      C  688   2.521   0.351   1.805  0.4748  0.4969  0.5275
  113CHL    CL1  689   2.535   0.337   1.985  0.3161  0.0758 -0.1349
  113CHL    CL2  690   2.353   0.356   1.752 -0.2588 -0.0309 -0.1471
  113CHL      H  691   2.563   0.256   1.770 -0.4660 -0.0382  0.8148
  114CHL     CL  692   1.650   0.734   2.896  0.0107 -0.0262  0.0828
  114CHL      C  693   1.673   0.581   2.827 -0.6960  0.0552 -0.3052
  114CHL    CL1  694   1.852   0.551   2.831  0.2517  0.1140  0.6362
  114CHL    CL2  695   1.595   0.448   2.912  0.4896  0.1310  0.0380
  114CHL      H  696   1.645   0.577   2.721 -1.5966 -1.5608 -0.0350
  115CHL     CL  697   2.570   1.031   0.554  0.3326  0.7959  0.2003
  115CHL      C  698   2.541   1.205   0.531  0.3036 -0.4147  0.2600
  115CHL    CL1  699   2.585   1.294   0.678 -0.3924  0.1748  0.1842
  115CHL    CL2  700   2.657   1.265   0.393  0.1463 -0.2824 -0.3655
  115CHL      H  701   2.435   1.219   0.507  0.1860 -0.1683  0.9238
  116CHL     CL  702   3.750   1.729   3.020  0.7017  0.4719 -0.0506
  116CHL      C  703   3.838   1.761   3.168 -0.0610 -0.4591  0.9905
  116CHL    CL1  704   3.976   1.861   3.138  0.4370 -0.3780  0.1649
  116CHL    CL2  705   3.728   1.858   3.271 -0.0119 -0.0447  0.2584
  116CHL      H  706   3.852   1.666   3.222  1.5219 -0.2187  1.0550
  117CHL     CL  707   3.787   2.029   2.727 -0.0044 -0.1457 -0.1263
  117CHL      C  708   3.600   2.033   2.727  0.2160  0.3323 -0.5244
  117CHL    CL1  709   3.535   2.197   2.699  0.2615 -0.2053 -0.2210
  117CHL    CL2  710   3.551   1.918   2.597 -0.0861  0.0413  0.0535
  117CHL      H  711   3.558   1.994   2.820 -0.4829 -0.7039 -1.2584
  118CHL     CL  712   2.873   2.624   0.834  0.4717 -0.1077 -0.2152
  118CHL      C  713   2.830   2.550   0.996  0.8589  0.7922  0.5418
  118CHL    CL1  714   2.748   2.673   1.092  0.3115 -0.1041  0.1205
  118CHL    CL2  715   2.735   2.400   1.004  0.1881 -0.0962  0.1240
  118CHL      H  716   2.922   2.529   1.050 -0.5104 -0.6469  2.4557
  119CHL     CL  717   2.685   1.908   1.869 -0.2420  0.2195 -0.0012
  119CHL      C  718   2.752   2.046   1.766 -0.5700  0.1235 -0.4219
  119CHL    CL1  719   2.643   2.174   1.745  0.2686  0.2992 -0.0346
  119CHL    CL2  720   2.893   2.118   1.853  0.3255 -0.1909  0.0967
  119CHL      H  721   2.777   2.013   1.664  1.3274 -0.1654  0.0893
  120CHL     CL  722   2.690   1.319   1.039  0.0724 -0.0401 -0.0711
  120CHL      C  723   2.524   1.286   1.099  0.6472 -0.2810  0.1768
  120CHL    CL1  724   2.399   1.378   1.009  0.2210  0.0164  0.4038
  120CHL    CL2  725   2.497   1.112   1.118 -0.2049  0.0889 -0.1037
  120CHL      H  726   2.526   1.326   1.201  2.1702  2.0294 -0.6762
  121CHL     CL  727   2.720   0.251   3.126  0.3135  0.1776 -0.1127
  121CHL      C  728   2.734   0.140   2.985  0.7363 -0.2825  0.4326
  121CHL    CL1  729   2.765   0.247   2.845  0.3721 -0.5794 -0.2631
  121CHL    CL2  730   2.860   0.017   3.002 -0.1316  0.0964  0.1683
  121CHL      H  731   2.636   0.095   2.971 -0.4649  1.9871  1.0727
  122CHL     CL  732   3.788   0.716   3.555  0.0386 -0.4549 -0.1813
  122CHL      C  733   3.784   0.727   3.729 -0.0318 -0.7348 -1.0361
  122CHL    CL1  734   3.632   0.801   3.781  0.2442  0.2316 -0.2539
  122CHL    CL2  735   3.809   0.562   3.799  0.0095  0.3167  0.1098
  122CHL      H  736   3.863   0.789   3.772 -3.0589  0.3544  3.6674
  123CHL     CL  737   2.238   1.376   1.290  0.1475  0.0184 -0.0186
  123CHL      C  738   2.204   1.221   1.372 -0.2228 -0.5097 -0.1253
  123CHL    CL1  739   2.342   1.183   1.475 -0.2331  0.4225 -0.0147
  123CHL    CL2  740   2.052   1.221   1.470 -0.7687 -0.2126  0.2285
  123CHL      H  741   2.205   1.140   1.298  0.5564 -0.7080  0.1008
  124CHL     CL  742   3.275   3.118   0.991 -0.1155 -0.1262 -0.3265
  124CHL      C  743   3.394   3.242   0.944  0.2585  0.2772 -1.0191
  124CHL    CL1  744   3.444   3.218   0.777 -0.2638 -0.1670  0.1706
  124CHL    CL2  745   3.319   3.403   0.982 -0.2014  0.2005 -0.1139
  124CHL      H  746   3.492   3.240   0.992 -0.0767 -0.4362 -0.3436
  125CHL     CL  747   1.464   1.835   0.531 -0.0360 -0.4254  0.1952
  125CHL      C  748   1.546   1.800   0.688  0.5726  1.2820  0.5784
  125CHL    CL1  749   1.718   1.851   0.681  0.0830 -0.2577  0.4080
  125CHL    CL2  750   1.449   1.872   0.841  0.3229  0.1958  0.0676
  125CHL      H  751   1.549   1.691   0.695  0.1166  1.3263  1.7491
  126CHL     CL  752   0.006   3.144   2.395 -0.0375  0.1578  0.1559
  126CHL      C  753  -0.139   3.183   2.494  0.1214 -0.6343  0.3101
  126CHL    CL1  754  -0.210   3.333   2.424  0.1126  0.2038 -0.0028
  126CHL    CL2  755  -0.258   3.058   2.484 -0.3457 -0.5817  0.0312
  126CHL      H  756  -0.110   3.194   2.599  3.4039 -1.3602 -0.4137
  127CHL     CL  757   2.248   2.706   1.842  0.5683  0.2103 -0.0252
  127CHL      C  758   2.242   2.569   1.737 -0.6220  0.6725 -0.5934
  127CHL    CL1  759   2.356   2.440   1.781  0.6510 -0.4779  0.2780
  127CHL    CL2  760   2.087   2.507   1.732  0.2206  0.2116 -0.1627
  127CHL      H  761   2.258   2.603   1.635 -0.4028  0.0288 -0.7765
  128CHL     CL  762   3.703   0.613   0.326 -0.0515  0.0794 -0.0744
  128CHL      C  763   3.801   0.761   0.362  0.5108 -0.2842  0.0498
  128CHL    CL1  764   3.953   0.718   0.444  0.1692 -0.0986 -0.1694
  128CHL    CL2  765   3.847   0.871   0.220 -0.6944 -0.1581 -0.3217
  128CHL      H  766   3.755   0.831   0.433  2.2096  0.9462  0.0036
  129CHL     CL  767   1.889   0.292   3.690  0.1037  0.2609  0.2569
  129CHL      C  768   1.826   0.344   3.839  0.5471 -0.0012  0.0792
  129CHL    CL1  769   1.952   0.429   3.931 -0.2342  0.1735 -0.4035
  129CHL    CL2  770   1.678   0.455   3.823  0.1826 -0.0671  0.0343
  129CHL      H  771   1.783   0.274   3.911 -2.3324  3.4648  2.0402
  130CHL     CL  772   2.306   0.577   1.208 -0.0216  0.0979 -0.0812
  130CHL      C  773   2.322   0.763   1.217 -1.0156  0.6413  0.4311
  130CHL    CL1  774   2.166   0.847   1.234  0.2559 -0.5145 -0.1346
  130CHL    CL2  775   2.446   0.801   1.344  0.7299 -0.0784 -0.0064
  130CHL      H  776   2.360   0.806   1.124 -0.1166  3.0902  1.8503
  131CHL     CL  777   3.064   0.013   0.596  0.2260  0.1126 -0.0404
  131CHL      C  778   2.918   0.003   0.501 -0.6836 -0.3316 -0.0030
  131CHL    CL1  779   2.956  -0.102   0.362 -0.2039 -0.0777 -0.1938
  131CHL    CL2  780   2.776  -0.075   0.570 -0.3035  0.3503  0.2901
  131CHL      H  781   2.890   0.105   0.476 -1.9789 -0.0823  2.1560
  132CHL     CL  782   2.087   0.021   3.571 -0.2337 -0.2203  0.2622
  132CHL      C  783   2.117  -0.036   3.744 -0.2510  0.0083  0.0413
  132CHL    CL1  784   2.289  -0.018   3.777  0.1694 -0.2533  0.0772
  132CHL    CL2  785   2.027   0.070   3.861 -0.2044 -0.2241  0.1053
  132CHL      H  786   2.090  -0.142   3.746  0.5941 -0.2832 -1.9220
  133CHL     CL  787   2.112   2.858   1.094 -0.1113  0.2841 -0.2182
  133CHL      C  788   2.110   2.723   0.975  1.0576 -0.2773  0.5935
  133CHL    CL1  789   2.188   2.578   1.041  0.4098  0.4055  0.1946
  133CHL    CL2  790   1.937   2.689   0.908 -0.0940 -0.2369  0.5570
  133CHL      H  791   2.174   2.743   0.888  2.6461 -2.7633  1.0893
  134CHL     CL  792   2.383   0.718   0.589  0.0759 -0.2714 -0.2066
  134CHL      C  793   2.419   0.680   0.750 -0.6040  0.1582  0.0010
  134CHL    CL1  794   2.350   0.795   0.874  0.0015  0.0818  0.2569
  134CHL    CL2  795   2.370   0.516   0.793 -0.4548  0.1951 -0.4800
  134CHL      H  796   2.528   0.686   0.764 -0.2701 -0.7943 -1.9022
  135CHL     CL  797   0.175   1.165   1.578  0.1129 -0.0402  0.0932
  135CHL      C  798   0.128   1.310   1.477  0.1620 -0.2749  0.2428
  135CHL    CL1  799   0.280   1.390   1.430 -0.0201  0.3925 -0.1938
  135CHL    CL2  800   0.033   1.256   1.331  0.0834  0.3404  0.0993
  135CHL      H  801   0.080   1.379   1.547 -0.7627 -0.0824 -0.5574
  136CHL     CL  802   2.975   0.005   2.019 -0.1095 -0.0988  0.0191
  136CHL      C  803   2.892  -0.086   1.883  0.2032 -0.5523  0.5779
  136CHL    CL1  804   2.706  -0.102   1.918  0.3293  0.1499  0.1370
  136CHL    CL2  805   2.912   0.008   1.730  0.1503  0.2276  0.0042
  136CHL      H  806   2.937  -0.184   1.869 -0.4934 -0.8445  0.3443
  137CHL     CL  807   1.459   1.131   0.676  0.4166 -0.3291  0.1208
  137CHL      C  808   1.575   1.243   0.601 -0.0698 -0.1910  0.7983
  137CHL    CL1  809   1.520   1.285   0.432  0.5145 -0.5119  0.0433
  137CHL    CL2  810   1.576   1.402   0.682  0.2983  0.1470  0.0263
  137CHL      H  811   1.675   1.199   0.606 -0.5132 -1.1013  2.1614
  138CHL     CL  812   3.381   1.541   0.754 -0.4145  0.1406  0.2060
  138CHL      C  813   3.339   1.683   0.651 -0.0284 -0.4375  0.3147
  138CHL    CL1  814   3.476   1.805   0.673  0.0408 -0.1856 -0.2864
  138CHL    CL2  815   3.306   1.640   0.467  0.3873  0.3382  0.0436
  138CHL      H  816   3.247   1.716   0.700 -1.6341 -0.2850 -2.5938
  139CHL     CL  817   0.244   1.313   1.904 -0.6657  0.1319  0.4335
  139CHL      C  818   0.129   1.439   1.865  0.1067  0.6355 -0.5027
  139CHL    CL1  819   0.211   1.543   1.738  0.2829  0.6274  0.2114
  139CHL    CL2  820  -0.014   1.362   1.798  0.1731  0.2344 -0.3541
  139CHL      H  821   0.094   1.494   1.953 -0.1798  1.2304 -0.9821
  140CHL     CL  822   3.630   3.663   3.758  0.2629  0.0504 -0.0266
  140CHL      C  823   3.537   3.566   3.891  0.1693  0.4538  0.2419
  140CHL    CL1  824   3.385   3.507   3.819 -0.0115  0.0137  0.0020
  140CHL    CL2  825   3.616   3.412   3.947 -0.1471  0.0068 -0.2247
  140CHL      H  826   3.518   3.625   3.981 -0.8895  0.8013 -0.1938
  141CHL     CL  827   2.310   2.005   1.930 -0.4682 -0.0398  0.1300
  141CHL      C  828   2.354   1.828   1.953  0.1861 -0.2864  0.7545
  141CHL    CL1  829   2.433   1.800   2.111 -0.3131 -0.1970 -0.3503
  141CHL    CL2  830   2.192   1.737   1.959 -0.0585  0.0264 -0.2259
  141CHL      H  831   2.415   1.803   1.866  1.0990  1.0611  0.9733
  142CHL     CL  832   2.022   1.789   2.459  0.4558 -0.0215 -0.1514
  142CHL      C  833   2.166   1.775   2.353 -0.6193  0.0500 -0.1912
  142CHL    CL1  834   2.329   1.774   2.433 -0.2656  0.0198 -0.1065
  142CHL    CL2  835   2.144   1.624   2.259 -0.2058  0.2172  0.2617
  142CHL      H  836   2.160   1.858   2.282 -0.0293 -0.5769 -0.9920
  143CHL     CL  837   2.936   1.032   2.497 -0.1577  0.1587  0.0363
  143CHL      C  838   2.980   1.104   2.658  0.0072  0.8287  0.2787
  143CHL    CL1  839   3.072   1.261   2.636  0.1358  0.1387  0.0231
  143CHL    CL2  840   2.841   1.128   2.763 -0.1566  0.1589  0.1596
  143CHL      H  841   3.045   1.025   2.697 -1.6761 -1.4666 -1.3066
  144CHL     CL  842   2.100   2.834   2.332  0.1949 -0.2316  0.4362
  144CHL      C  843   1.957   2.769   2.426  0.2218  0.4460 -0.1887
  144CHL    CL1  844   2.023   2.661   2.551 -0.0104 -0.4355  0.2883
  144CHL    CL2  845   1.851   2.896   2.491  0.0350  0.1934  0.0066
  144CHL      H  846   1.894   2.699   2.371 -1.1490  0.0247  1.8263
  145CHL     CL  847   2.893   3.316   2.577  0.1585 -0.0556 -0.1667
  145CHL      C  848   2.934   3.375   2.737 -0.4406  0.0393  0.3810
  145CHL    CL1  849   3.094   3.297   2.789 -0.2855 -0.1428 -0.0270
  145CHL    CL2  850   2.954   3.556   2.734  0.1070  0.2035  0.3765
  145CHL      H  851   2.853   3.354   2.808 -0.4166 -0.0762  0.3746
  146CHL     CL  852   1.899   2.584   1.385  0.0777  0.1322 -0.0614
  146CHL      C  853   1.796   2.444   1.404  0.3899 -0.1809 -0.5151
  146CHL    CL1  854   1.884   2.302   1.468 -0.2128  0.3472  0.4165
  146CHL    CL2  855   1.640   2.472   1.504 -0.1787 -0.3206 -0.4261
  146CHL      H  856   1.761   2.416   1.304  0.2839 -0.9904 -0.2590
  147CHL     CL  857   2.626   1.423   2.533 -0.3206  0.0473  0.2895
  147CHL      C  858   2.670   1.472   2.361 -0.8364  0.2009 -0.0933
  147CHL    CL1  859   2.827   1.400   2.324  0.2032 -0.2680  0.1721
  147CHL    CL2  860   2.541   1.424   2.249  0.2491 -0.3476  0.0550
  147CHL      H  861   2.685   1.581   2.363 -1.0389  0.2530 -1.0134
  148CHL     CL  862   0.924   2.225   1.900  0.2976 -0.3572  0.2278
  148CHL      C  863   0.901   2.239   2.076  0.0334  0.4900  0.5836
  148CHL    CL1  864   1.011   2.133   2.170 -0.0205 -0.1004 -0.2165
  148CHL    CL2  865   0.928   2.411   2.137  0.3485 -0.0467  0.0608
  148CHL      H  866   0.794   2.219   2.094 -0.3292  1.3514 -0.5099
  149CHL     CL  867   0.840   2.495   3.212  0.2125  0.0746 -0.1605
  149CHL      C  868   0.862   2.316   3.248  0.5003  0.1463  0.2015
  149CHL    CL1  869   0.845   2.212   3.102  0.0711  0.0935 -0.2142
  149CHL    CL2  870   1.029   2.297   3.312 -0.4074 -0.0225  0.0829
  149CHL      H  871   0.791   2.280   3.323 -1.0170  0.3585 -1.0803
  150CHL     CL  872   2.700   3.034   3.538  0.1307 -0.3855 -0.1253
  150CHL      C  873   2.759   3.122   3.394 -0.0090 -0.0293  0.1269
  150CHL    CL1  874   2.658   3.266   3.366  0.0034 -0.0072 -0.1563
  150CHL    CL2  875   2.929   3.181   3.414  0.1066  0.0262  0.5118
  150CHL      H  876   2.760   3.059   3.303  1.7886 -0.3505  0.3211
  151CHL     CL  877   2.323   3.729   1.723 -0.1223  0.2423  0.0387
  151CHL      C  878   2.361   3.620   1.585 -0.0641 -0.9366  0.0320
  151CHL    CL1  879   2.423   3.726   1.452 -0.1829  0.1909  0.5189
  151CHL    CL2  880   2.493   3.497   1.631  0.2963 -0.1306  0.6282
  151CHL      H  881   2.271   3.570   1.548 -1.1324  0.1496  1.0549
  152CHL     CL  882   0.341   1.081   0.894 -0.0455 -0.1236  0.2321
  152CHL      C  883   0.392   0.908   0.925  0.4100  0.2756  0.5107
  152CHL    CL1  884   0.397   0.810   0.773 -0.6906  0.2478  0.1676
  152CHL    CL2  885   0.551   0.924   1.001 -0.1110  0.2506 -0.1547
  152CHL      H  886   0.327   0.866   1.002  1.7416  1.8039  2.5751
  153CHL     CL  887   0.808   0.003   2.089 -0.1594 -0.1205 -0.5727
  153CHL      C  888   0.649   0.088   2.089 -0.5287 -0.3771  0.3190
  153CHL    CL1  889   0.700   0.259   2.054  0.1471 -0.1289 -0.3115
  153CHL    CL2  890   0.548   0.022   1.961 -0.1711 -0.0205 -0.0852
  153CHL      H  891   0.610   0.086   2.191 -0.4835  1.7420  0.4206
  154CHL     CL  892   0.619   3.446   1.635 -0.2058  0.1617 -0.0515
  154CHL      C  893   0.500   3.369   1.517 -0.0973 -0.4146  0.4776
  154CHL    CL1  894   0.330   3.358   1.585 -0.1246 -0.3567 -0.3200
  154CHL    CL2  895   0.507   3.451   1.360  0.2459 -0.2046  0.4187
  154CHL      H  896   0.527   3.266   1.493  0.0894  0.2795 -2.8803
  155CHL     CL  897   3.580   0.166   3.593  0.2532 -0.6448  0.3104
  155CHL      C  898   3.737   0.236   3.640 -0.3849 -0.5111  0.1183
  155CHL    CL1  899   3.820   0.157   3.776 -0.3085 -0.2660  0.0376
  155CHL    CL2  900   3.848   0.236   3.500  0.1257 -0.1606  0.1081
  155CHL      H  901   3.723   0.343   3.661 -0.5735 -0.4184 -0.4520
  156CHL     CL  902   2.160   2.210   2.283  0.2752  0.3644  0.2629
  156CHL      C  903   2.124   2.351   2.179  0.0649 -0.1047 -0.5444
  156CHL    CL1  904   1.964   2.322   2.097 -0.1956  0.1898  0.0640
  156CHL    CL2  905   2.116   2.490   2.289 -0.1232  0.0076  0.3752
  156CHL      H  906   2.202   2.361   2.102  0.8205 -0.2966  0.1903
  157CHL     CL  907   0.468   0.573   0.478 -0.0855  0.1944 -0.1371
  157CHL      C  908   0.564   0.727   0.457  0.0553 -0.7558 -1.0541
  157CHL    CL1  909   0.734   0.701   0.460 -0.0887 -0.1323 -0.3398
  157CHL    CL2  910   0.520   0.796   0.303 -0.2090  0.1765  0.3669
  157CHL      H  911   0.551   0.787   0.548  0.3613 -0.2857 -1.3111
  158CHL     CL  912   0.912   0.763   1.396 -0.3307 -0.1253 -0.1001
  158CHL      C  913   0.901   0.843   1.236 -0.4381  0.2267  0.5134
  158CHL    CL1  914   0.809   0.996   1.268 -0.0156 -0.5708 -0.3766
  158CHL    CL2  915   1.065   0.874   1.178  0.2756 -0.1613 -0.4684
  158CHL      H  916   0.845   0.779   1.168 -0.1833  0.4589  0.0805
  159CHL     CL  917   3.582   2.045   0.283  0.3103 -0.2146  0.5015
  159CHL      C  918   3.723   1.928   0.256  0.1497  0.8694 -0.1386
  159CHL    CL1  919   3.885   1.990   0.317 -0.0294 -0.0717 -0.0712
  159CHL    CL2  920   3.694   1.757   0.305 -0.6139  0.0624 -0.1462
  159CHL      H  921   3.746   1.931   0.149  0.4549  0.0152 -0.1052
  160CHL     CL  922   1.834   1.542   1.075  0.2380 -0.1387  0.1289
  160CHL      C  923   1.962   1.603   0.973 -0.3883 -0.7371  0.2247
  160CHL    CL1  924   1.974   1.532   0.811  0.5518  0.2733 -0.4157
  160CHL    CL2  925   1.946   1.784   0.950  0.2604  0.4300 -0.1738
  160CHL      H  926   2.063   1.586   1.013  0.5523 -0.2092 -1.7772
  161CHL     CL  927   1.200   2.814   2.857  0.3452  0.0849 -0.7379
  161CHL      C  928   1.066   2.737   2.947 -0.4639  0.6463  0.4711
  161CHL    CL1  929   0.910   2.730   2.851 -0.3667  0.2739  0.0411
  161CHL    CL2  930   1.120   2.567   2.997  0.0651 -0.0665 -0.2342
  161CHL      H  931   1.037   2.795   3.035 -0.3718  0.8103  0.3933
  162CHL     CL  932   1.182   0.163   2.042 -0.4581  0.4083 -0.0190
  162CHL      C  933   1.196   0.309   1.940 -0.1820 -0.0670  0.4973
  162CHL    CL1  934   1.307   0.429   2.005  0.0631  0.0161  0.2384
  162CHL    CL2  935   1.254   0.259   1.782  0.3974 -0.1709  0.3352
  162CHL      H  936   1.100   0.360   1.925 -0.0436 -0.1993 -1.0831
  163CHL     CL  937   3.586   2.068   1.185  0.1457  0.1238  0.3407
  163CHL      C  938   3.594   1.909   1.102 -0.2730  0.7723 -0.1821
  163CHL    CL1  939   3.759   1.859   1.045 -0.1568 -0.0855  0.2897
  163CHL    CL2  940   3.525   1.779   1.214  0.1827 -0.1183 -0.4098
  163CHL      H  941   3.522   1.916   1.020 -1.9168  0.8373  1.2056
  164CHL     CL  942   0.685   0.572   2.769 -0.1749  0.1362 -0.1893
  164CHL      C  943   0.783   0.431   2.698  0.2147 -0.0567 -0.5859
  164CHL    CL1  944   0.782   0.303   2.825  0.0249 -0.1300 -0.0811
  164CHL    CL2  945   0.713   0.379   2.538 -0.0779  0.0511  0.2582
  164CHL      H  946   0.882   0.475   2.683 -0.2397  1.5417  0.8118
  165CHL     CL  947   0.293   0.952   1.238 -0.1409  0.0372  0.1108
  165CHL      C  948   0.121   0.897   1.285 -0.1928 -0.2734  0.1058
  165CHL    CL1  949   0.014   0.897   1.142 -0.1130  0.1158  0.2676
  165CHL    CL2  950   0.110   0.727   1.343 -0.1344 -0.2592  0.1104
  165CHL      H  951   0.080   0.967   1.359 -1.2186  0.1602 -0.8515
  166CHL     CL  952   1.605   3.040   3.253  0.3897 -0.1864 -0.3516
  166CHL      C  953   1.647   3.109   3.095 -0.4058  0.2858  0.3975
  166CHL    CL1  954   1.513   3.120   2.989 -0.2514  0.3345  0.4772
  166CHL    CL2  955   1.725   3.268   3.119  0.0176  0.1639  0.4044
  166CHL      H  956   1.720   3.045   3.043 -1.4840 -0.3594 -0.3587
  167CHL     CL  957   0.125   0.152   1.466 -0.0634 -0.1231  0.7934
  167CHL      C  958   0.065   0.311   1.412 -1.0284 -0.0996 -0.2628
  167CHL    CL1  959   0.141   0.449   1.520 -0.0498  0.2799  0.4888
  167CHL    CL2  960   0.119   0.332   1.244 -0.3906 -0.2249 -0.1938
  167CHL      H  961  -0.044   0.323   1.418 -0.8947  0.8387  1.0035
  168CHL     CL  962   3.156   0.357   0.478  0.0936 -0.3739  0.0667
  168CHL      C  963   3.119   0.421   0.311  0.0453  0.3901  0.1718
  168CHL    CL1  964   3.031   0.287   0.231 -0.0493 -0.0611  0.2125
  168CHL    CL2  965   3.003   0.565   0.318  0.4500 -0.3369 -0.2377
  168CHL      H  966   3.211   0.458   0.264 -0.4901  2.5239  0.7106
  169CHL     CL  967   0.099   2.907   3.690 -0.3293 -0.0651 -0.2476
  169CHL      C  968   0.036   2.981   3.852  0.2309  0.1265 -0.7438
  169CHL    CL1  969   0.149   3.106   3.908  0.0171  0.3410 -0.1652
  169CHL    CL2  970  -0.134   3.049   3.846  0.3373 -0.2730 -0.0500
  169CHL      H  971   0.033   2.900   3.925 -1.2253  0.0447 -0.8620
  170CHL     CL  972   1.872   2.113   0.899 -0.3612 -0.0277  0.1284
  170CHL      C  973   1.891   2.290   0.923  0.4856 -0.2627 -0.0799
  170CHL    CL1  974   2.044   2.338   0.846 -0.1605  0.0221 -0.3630
  170CHL    CL2  975   1.759   2.380   0.842  0.3988  0.0324 -0.2847
  170CHL      H  976   1.897   2.317   1.029  1.1003  0.6623 -0.3381
  171CHL     CL  977   1.515   1.589   3.753 -0.3715  0.2744 -0.3060
  171CHL      C  978   1.666   1.620   3.838  0.3873 -0.0843  0.3447
  171CHL    CL1  979   1.631   1.731   3.978 -0.0238  0.0810 -0.0546
  171CHL    CL2  980   1.713   1.459   3.899 -0.1711  0.3529  0.0813
  171CHL      H  981   1.739   1.655   3.765 -1.1812 -1.8163 -2.2004
  172CHL     CL  982   0.938   2.913   2.282  0.3833 -0.2409  0.3906
  172CHL      C  983   0.908   2.735   2.279  0.6195 -0.5959 -0.2238
  172CHL    CL1  984   1.000   2.658   2.424  0.0434 -0.4317  0.1244
  172CHL    CL2  985   0.740   2.711   2.277  0.1229  0.2437 -0.1123
  172CHL      H  986   0.941   2.687   2.186  0.6951 -0.7397 -0.1233
  173CHL     CL  987   2.483   2.160   1.371 -0.3467 -0.2696 -0.2720
  173CHL      C  988   2.354   2.244   1.299 -0.9161  0.0652  0.3624
  173CHL    CL1  989   2.289   2.166   1.145  0.2520  0.2601 -0.0260
  173CHL    CL2  990   2.221   2.282   1.418 -0.4188  0.3320 -0.4421
  173CHL      H  991   2.394   2.342   1.269 -0.1366 -0.4044 -0.1544
  174CHL     CL  992   0.845   1.774   0.657 -0.0235  0.1172  0.0997
  174CHL      C  993   0.669   1.761   0.591  0.0079  0.1609 -0.4087
  174CHL    CL1  994   0.662   1.769   0.417 -0.2532  0.0565  0.0238
  174CHL    CL2  995   0.597   1.604   0.651 -0.0033 -0.4614  0.0612
  174CHL      H  996   0.620   1.849   0.635  0.5634  0.6668 -0.7858
  175CHL     CL  997   3.580   1.156   3.189 -0.0120  0.3571  0.0133
  175CHL      C  998   3.650   1.117   3.348  0.2344 -0.0681  0.1544
  175CHL    CL1  999   3.739   0.970   3.336 -0.1635 -0.0616 -0.2899
  175CHL    CL2 1000   3.775   1.245   3.366  0.1978  0.2686 -0.4682
  175CHL      H 1001   3.572   1.113   3.424 -0.0676 -3.4496 -0.2003
  176CHL     CL 1002   0.303   1.910   0.551  0.3431  0.1600  0.3656
  176CHL      C 1003   0.196   1.802   0.646  0.1865 -0.7297 -0.0741
  176CHL    CL1 1004   0.034   1.878   0.674  0.3951 -0.1015  0.0985
  176CHL    CL2 1005   0.186   1.663   0.536 -0.3214 -0.3300 -0.0571
  176CHL      H 1006   0.244   1.769   0.739 -1.7411 -2.1897  0.4605
  177CHL     CL 1007   3.235   0.293   1.568 -0.2576 -0.1826 -0.0028
  177CHL      C 1008   3.283   0.143   1.647  0.0828 -0.1756  0.2056
  177CHL    CL1 1009   3.236   0.159   1.820 -0.1747  0.8188  0.3268
  177CHL    CL2 1010   3.194   0.005   1.574  0.1905 -0.2807  0.5247
  177CHL      H 1011   3.391   0.124   1.646  0.4103  1.5363 -0.1812
  178CHL     CL 1012   3.245   0.203   3.409 -0.2088 -0.0444  0.0747
  178CHL      C 1013   3.092   0.216   3.299 -0.7202 -0.5416 -0.1029
  178CHL    CL1 1014   2.955   0.194   3.394  0.2410 -0.4936 -0.1127
  178CHL    CL2 1015   3.080   0.374   3.218 -0.2790  0.4141 -0.1875
  178CHL      H 1016   3.101   0.137   3.224  0.1821 -0.5846  0.0372
  179CHL     CL 1017   2.193   1.456   1.762 -0.0212  0.0301  0.0877
  179CHL      C 1018   2.105   1.358   1.889  0.7209  0.0666 -0.1363
  179CHL    CL1 1019   2.060   1.182   1.817  0.1657  0.3903  0.3136
  179CHL    CL2 1020   2.205   1.339   2.036  0.3278 -0.2494  0.1089
  179CHL      H 1021   2.009   1.399   1.922  1.4464  0.6546  1.3764
  180CHL     CL 1022   3.406   1.113   3.759  0.0947 -0.0934  0.3758
  180CHL      C 1023   3.251   1.030   3.787  0.2061  0.7633  0.1719
  180CHL    CL1 1024   3.279   0.895   3.903  0.2036 -0.3954  0.0713
  180CHL    CL2 1025   3.131   1.147   3.849  0.5287  0.3579  0.6173
  180CHL      H 1026   3.215   0.989   3.692  2.3723  1.0198 -0.8286
  181CHL     CL 1027   2.473   1.841   0.391 -0.5086  0.1671 -0.2671
  181CHL      C 1028   2.509   1.901   0.228  0.0273 -0.1829  0.4406
  181CHL    CL1 1029   2.363   1.896   0.129  0.6708  0.3776  0.7487
  181CHL    CL2 1030   2.564   2.054   0.220 -0.2496 -0.3389 -0.0561
  181CHL      H 1031   2.586   1.834   0.188  0.4871 -0.1262  1.2068
  182CHL     CL 1032   2.057   0.717   0.291  0.1401 -0.1364 -0.1526
  182CHL      C 1033   2.165   0.818   0.189 -0.3544 -0.4200 -0.3178
  182CHL    CL1 1034   2.319   0.723   0.198 -0.3602 -0.1469 -0.3518
  182CHL    CL2 1035   2.095   0.824   0.031 -0.0598 -0.0736 -0.5500
  182CHL      H 1036   2.194   0.919   0.223 -0.3429  0.3426 -2.4320
  183CHL     CL 1037   3.287   3.516   0.625 -0.0055 -0.1454 -0.0118
  183CHL      C 1038   3.382   3.467   0.473  0.7898 -0.6787  0.0745
  183CHL    CL1 1039   3.279   3.491   0.326  0.1150  0.0628 -0.0002
  183CHL    CL2 1040   3.528   3.560   0.459  0.0347 -0.4223 -0.2292
  183CHL      H 1041   3.410   3.361   0.472  2.2933 -0.3178  0.9852
  184CHL     CL 1042   2.123   1.679   0.454  0.1156 -0.3612  0.0557
  184CHL      C 1043   2.011   1.622   0.324 -0.4710  0.1126  0.0931
  184CHL    CL1 1044   1.869   1.582   0.397  0.1799  0.0508 -0.0587
  184CHL    CL2 1045   1.992   1.742   0.193 -0.0375  0.2019 -0.0321
  184CHL      H 1046   2.061   1.530   0.291 -1.3464 -0.4301  0.2480
  185CHL     CL 1047   3.118   0.218   0.939 -0.2210 -0.2779  0.3486
  185CHL      C 1048   3.262   0.186   0.834 -0.3247 -0.1370  0.6485
  185CHL    CL1 1049   3.351   0.347   0.802 -0.2064 -0.1486  0.0463
  185CHL    CL2 1050   3.350   0.057   0.917  0.0185 -0.0738 -0.0933
  185CHL      H 1051   3.231   0.141   0.739  0.7055 -1.3475  0.8611
  186CHL     CL 1052   2.769   3.312   3.798  0.0061  0.0918 -0.0502
  186CHL      C 1053   2.658   3.424   3.719 -0.0093  0.5113  0.5161
  186CHL    CL1 1054   2.576   3.521   3.845  0.2522 -0.3621  0.3023
  186CHL    CL2 1055   2.769   3.520   3.614  0.1646  0.3155  0.0298
  186CHL      H 1056   2.588   3.361   3.661  1.6439 -2.1105  1.1975
  187CHL     CL 1057   2.194   1.204   3.037  0.2158 -0.0127 -0.0437
  187CHL      C 1058   2.241   1.344   3.125 -0.1555  0.0100 -0.8338
  187CHL    CL1 1059   2.087   1.426   3.186 -0.2135  0.2776 -0.1885
  187CHL    CL2 1060   2.341   1.322   3.270  0.4165  0.3195 -0.0599
  187CHL      H 1061   2.283   1.416   3.054 -1.3831 -0.3583 -1.9708
  188CHL     CL 1062   3.705   3.679   2.930 -0.4433  0.0301  0.0131
  188CHL      C 1063   3.566   3.596   2.865 -0.0089  0.5448 -0.1370
  188CHL    CL1 1064   3.599   3.430   2.791 -0.2674  0.1378  0.1561
  188CHL    CL2 1065   3.431   3.577   2.983 -0.1274 -0.0596  0.1486
  188CHL      H 1066   3.535   3.659   2.782  0.4391  1.1602  0.1567
  189CHL     CL 1067   2.497   3.043   0.640 -0.1154  0.0264  0.0324
  189CHL      C 1068   2.471   2.868   0.672  0.5537 -0.5796 -0.4257
  189CHL    CL1 1069   2.487   2.831   0.842  0.4647 -0.2184 -0.0322
  189CHL    CL2 1070   2.313   2.817   0.603 -0.3439 -0.5787  0.3274
  189CHL      H 1071   2.553   2.820   0.617  0.7167 -0.1129 -0.5982
  190CHL     CL 1072   0.407   1.739   2.484 -0.2602 -0.2180  0.0385
  190CHL      C 1073   0.497   1.666   2.348  0.0564  0.3417  0.3652
  190CHL    CL1 1074   0.577   1.521   2.404 -0.2989 -0.0757 -0.1897
  190CHL    CL2 1075   0.382   1.621   2.216 -0.0126  0.3104  0.2322
  190CHL      H 1076   0.569   1.729   2.296 -0.2445  1.3082  1.1042
  191CHL     CL 1077   0.642   2.936   0.259  0.4156 -0.0368 -0.3377
  191CHL      C 1078   0.551   2.846   0.380 -0.2695  0.1111  1.6722
  191CHL    CL1 1079   0.383   2.812   0.315 -0.4411 -0.3710  0.0249
  191CHL    CL2 1080   0.632   2.686   0.416  0.1315  0.1648 -0.0239
  191CHL      H 1081   0.549   2.905   0.473  0.9035  1.2743  0.9881
  192CHL     CL 1082   0.813   1.563   1.749 -0.1219  0.0699 -0.2396
  192CHL      C 1083   0.631   1.574   1.733 -0.2152  0.4669 -0.1931
  192CHL    CL1 1084   0.555   1.588   1.893 -0.2625 -0.1883  0.3908
  192CHL    CL2 1085   0.577   1.713   1.619 -0.1061  0.4530 -0.2437
  192CHL      H 1086   0.592   1.485   1.683  0.7797 -0.2771  0.3270
  193CHL     CL 1087   3.567   3.190   0.387 -0.2680  0.1199 -0.3268
  193CHL      C 1088   3.723   3.219   0.471  0.3244  0.8261  0.5172
  193CHL    CL1 1089   3.706   3.328   0.612 -0.3796  0.1146 -0.0072
  193CHL    CL2 1090   3.789   3.062   0.503  0.6093  0.1718 -0.0570
  193CHL      H 1091   3.792   3.262   0.398  0.7253 -1.1652 -0.3409
  194CHL     CL 1092   2.836   1.675   1.533 -0.0329  0.0396  0.4008
  194CHL      C 1093   2.916   1.534   1.435 -0.1180 -0.9889 -0.1652
  194CHL    CL1 1094   2.785   1.410   1.398 -0.1149  0.2394 -0.3808
  194CHL    CL2 1095   2.982   1.594   1.272  0.2715  0.2684 -0.0830
  194CHL      H 1096   3.008   1.499   1.482  1.8618 -0.9876 -3.6735
  195CHL     CL 1097   3.793   1.673   1.531 -0.3016 -0.3951  0.0050
  195CHL      C 1098   3.895   1.808   1.452 -0.2753  0.6842  0.1557
  195CHL    CL1 1099   3.795   1.952   1.417  0.1106  0.0441 -0.0748
  195CHL    CL2 1100   4.040   1.842   1.556  0.1842  0.0935 -0.4423
  195CHL      H 1101   3.932   1.775   1.354 -0.4998  0.6165  0.0903
  196CHL     CL 1102   2.206   1.306   0.656  0.3397  0.5400  0.0395
  196CHL      C 1103   2.083   1.171   0.654 -0.3924  0.0942  1.0532
  196CHL    CL1 1104   1.950   1.201   0.535 -0.3482  0.1897 -0.1621
  196CHL    CL2 1105   2.177   1.023   0.604 -0.1671  0.1819 -0.1717
  196CHL      H 1106   2.035   1.148   0.749 -2.6234 -2.5500 -0.5701
  197CHL     CL 1107   0.726   1.918   2.490  0.0715  0.1170 -0.2530
  197CHL      C 1108   0.642   2.084   2.470 -0.3436  0.6041 -0.2236
  197CHL    CL1 1109   0.760   2.223   2.441  0.1249  0.3175 -0.0192
  197CHL    CL2 1110   0.540   2.081   2.323  0.0878 -0.1013 -0.2787
  197CHL      H 1111   0.571   2.107   2.551 -0.4001 -0.5349  0.0668
  198CHL     CL 1112   0.603   3.368   3.384 -0.1102  0.0557  0.0174
  198CHL      C 1113   0.504   3.501   3.302 -0.1756  0.0500 -0.0188
  198CHL    CL1 1114   0.613   3.630   3.238 -0.5218 -0.4853  0.3546
  198CHL    CL2 1115   0.391   3.428   3.178 -0.3552  0.0495  0.0601
  198CHL      H 1116   0.450   3.561   3.376  0.6855 -0.2698  0.8880
  199CHL     CL 1117   3.482   0.325   2.994  0.0093 -0.2963 -0.1627
  199CHL      C 1118   3.442   0.274   3.165 -0.4227 -0.1680 -0.0155
  199CHL    CL1 1119   3.461   0.093   3.165  0.0468 -0.2263 -0.0892
  199CHL    CL2 1120   3.562   0.345   3.279 -0.4091  0.4383  0.1519
  199CHL      H 1121   3.337   0.300   3.184 -0.0887  0.6556  0.7969
  200CHL     CL 1122   3.551   2.345   0.571  0.0692  0.0743  0.0819
  200CHL      C 1123   3.658   2.205   0.636  0.3532  0.5379 -0.0145
  200CHL    CL1 1124   3.834   2.246   0.629 -0.1387 -0.0577 -0.1633
  200CHL    CL2 1125   3.620   2.177   0.813 -0.1040 -0.0960  0.2336
  200CHL      H 1126   3.648   2.107   0.588  0.6470  0.5627 -0.1271
  201CHL     CL 1127   0.271   1.078   0.468  0.1891 -0.0984 -0.0407
  201CHL      C 1128   0.378   1.202   0.534 -0.6029  0.2907  0.0495
  201CHL    CL1 1129   0.554   1.140   0.526 -0.0433  0.0182 -0.3063
  201CHL    CL2 1130   0.358   1.352   0.443 -0.4176 -0.0849 -0.0964
  201CHL      H 1131   0.341   1.206   0.637 -1.7312 -0.9840 -0.2720
  202CHL     CL 1132   2.410   2.343   0.100 -0.2607 -0.0031 -0.3687
  202CHL      C 1133   2.300   2.376  -0.028  0.5791  0.4958  0.3615
  202CHL    CL1 1134   2.274   2.545  -0.079  0.5429  0.1966  0.2429
  202CHL    CL2 1135   2.347   2.258  -0.170  0.1680  0.0177 -0.1024
  202CHL      H 1136   2.200   2.343   0.003 -0.0531 -0.8298 -2.7448
  203CHL     CL 1137   2.950   2.438   1.694 -0.1938  0.1420 -0.4070
  203CHL      C 1138   2.851   2.515   1.581 -0.5959 -0.5697 -0.6569
  203CHL    CL1 1139   2.906   2.477   1.410 -0.1034  0.2768  0.3720
  203CHL    CL2 1140   2.682   2.474   1.626  0.3346  0.1305  0.3044
  203CHL      H 1141   2.869   2.622   1.591 -1.1921 -0.5773  0.7542
  204CHL     CL 1142   3.366   3.046   2.807  0.0985  0.2158  0.2050
  204CHL      C 1143   3.348   3.116   2.968  0.4405 -0.5958  0.2835
  204CHL    CL1 1144   3.186   3.078   3.036 -0.3031  0.1024  0.5032
  204CHL    CL2 1145   3.479   3.050   3.073  0.0195  0.0342 -0.3437
  204CHL      H 1146   3.361   3.223   2.950  0.2747 -0.3446  1.5802
  205CHL     CL 1147   1.452   2.051   1.656  0.2275  0.3838  0.0655
  205CHL      C 1148   1.350   2.169   1.563  0.2378  0.5087 -0.2364
  205CHL    CL1 1149   1.338   2.100   1.400  0.0765 -0.1801  0.1886
  205CHL    CL2 1150   1.184   2.197   1.646  0.1029  0.5156  0.0521
  205CHL      H 1151   1.399   2.266   1.549  2.8565 -0.7126 -0.0128
  206CHL     CL 1152   1.455   2.834   0.189 -0.2419  0.6813 -0.3831
  206CHL      C 1153   1.324   2.881   0.069 -0.0580 -0.8524  0.3095
  206CHL    CL1 1154   1.400   2.929  -0.082 -0.0078  0.2638  0.0388
  206CHL    CL2 1155   1.220   2.734   0.049 -0.7568  0.5160 -0.1378
  206CHL      H 1156   1.260   2.958   0.114  0.3724 -1.6062  2.3031
  207CHL     CL 1157   1.761   2.986   1.637  0.1408 -0.0544  0.1452
  207CHL      C 1158   1.759   3.107   1.767  0.5528 -0.1928  0.5899
  207CHL    CL1 1159   1.751   3.022   1.920  0.1114  0.0208  0.2945
  207CHL    CL2 1160   1.891   3.223   1.755 -0.4869  0.0740 -0.2305
  207CHL      H 1161   1.664   3.161   1.772 -0.1627 -1.3887  0.2427
  208CHL     CL 1162   3.059   1.195   0.421 -0.3135 -0.0665 -0.3501
  208CHL      C 1163   2.987   1.063   0.524  0.2814  0.2275 -0.2623
  208CHL    CL1 1164   3.058   0.910   0.460  0.5805  0.3330 -0.1427
  208CHL    CL2 1165   3.022   1.082   0.708 -0.0697 -0.1593 -0.4447
  208CHL      H 1166   2.878   1.072   0.517  0.4603  3.5809 -0.5920
  209CHL     CL 1167   1.609   3.423   0.201  0.2581 -0.0124  0.0551
  209CHL      C 1168   1.469   3.383   0.310 -0.5574 -0.0985 -0.1058
  209CHL    CL1 1169   1.402   3.213   0.267 -0.0593 -0.2282  0.0667
  209CHL    CL2 1170   1.523   3.379   0.486  0.2377 -0.1142  0.1756
  209CHL      H 1171   1.387   3.455   0.312 -2.4197 -2.1556  1.0734
  210CHL     CL 1172   1.473   0.538   2.543 -0.0332 -0.0652  0.5396
  210CHL      C 1173   1.376   0.627   2.423  0.5615  0.0617  0.4512
  210CHL    CL1 1174   1.302   0.754   2.517  0.1378 -0.1428  0.4247
  210CHL    CL2 1175   1.487   0.695   2.278  0.1460 -0.0154  0.4692
  210CHL      H 1176   1.294   0.562   2.391 -0.6343  2.0480 -0.7444
  211CHL     CL 1177   3.671   2.234   1.812 -0.2128  0.0850  0.3683
  211CHL      C 1178   3.790   2.130   1.902 -0.4915 -0.1089 -0.6117
  211CHL    CL1 1179   3.822   2.198   2.076 -0.3126 -0.0873  0.2602
  211CHL    CL2 1180   3.742   1.965   1.915 -0.3996  0.3547  0.5216
  211CHL      H 1181   3.890   2.130   1.857  0.6584 -1.8090  1.7078
  212CHL     CL 1182   2.728   3.035   0.949  0.1401 -0.2399  0.1243
  212CHL      C 1183   2.821   3.090   1.087  0.4829 -0.7013  0.0066
  212CHL    CL1 1184   2.912   3.238   1.039  0.0292  0.1172  0.0579
  212CHL    CL2 1185   2.704   3.125   1.223  0.1364  0.1108  0.0462
  212CHL      H 1186   2.886   3.008   1.120 -0.4951 -1.9764 -1.1448
  213CHL     CL 1187   3.393   0.390   2.273 -0.3120 -0.1776  0.0886
  213CHL      C 1188   3.280   0.474   2.370 -0.0303 -1.1028  0.8130
  213CHL    CL1 1189   3.232   0.615   2.283 -0.6051 -0.0484  0.0527
  213CHL    CL2 1190   3.131   0.378   2.402 -0.1345  0.0206 -0.5167
  213CHL      H 1191   3.323   0.504   2.466  1.3105 -1.4517  0.3326
  214CHL     CL 1192   3.573   0.071   0.290  0.1455 -0.3522 -0.2688
  214CHL      C 1193   3.461   0.149   0.399  0.8534 -0.6323 -0.6914
  214CHL    CL1 1194   3.305   0.051   0.382  0.1736  0.1377 -0.1403
  214CHL    CL2 1195   3.518   0.128   0.563 -0.2333 -0.2049  0.0847
  214CHL      H 1196   3.448   0.257   0.382  5.0194  0.9601  3.7806
  215CHL     CL 1197   1.268   1.565   3.498  0.0316  0.1280 -0.3514
  215CHL      C 1198   1.209   1.508   3.653 -0.3625  0.1146  0.0734
  215CHL    CL1 1199   1.198   1.647   3.756  0.1130  0.0205  0.0282
  215CHL    CL2 1200   1.040   1.457   3.632 -0.0784 -0.1539  0.1548
  215CHL      H 1201   1.263   1.419   3.688 -0.0730  0.0369 -0.5385
  216CHL     CL 1202   0.191   1.661   0.194 -0.0399 -0.2574 -0.1813
  216CHL      C 1203   0.322   1.629   0.077  1.3512 -0.1532 -0.6967
  216CHL    CL1 1204   0.287   1.719  -0.073 -0.3295 -0.0841  0.3603
  216CHL    CL2 1205   0.481   1.680   0.149 -0.0410  0.0552 -0.0230
  216CHL      H 1206   0.320   1.522   0.056 -1.5552 -0.1987 -0.4924
  217CHL     CL 1207   2.995   2.679   0.291  0.2852  0.3906 -0.3067
  217CHL      C 1208   2.853   2.792   0.322  0.3441 -0.7543  0.1346
  217CHL    CL1 1209   2.838   2.827   0.504  0.2597  0.0946  0.1335
  217CHL    CL2 1210   2.866   2.958   0.252  0.4429  0.0684  0.1869
  217CHL      H 1211   2.768   2.726   0.299 -0.8116  0.8708 -0.4355
  218CHL     CL 1212   1.541   2.492   0.081 -0.2546  0.0584 -0.0245
  218CHL      C 1213   1.406   2.447  -0.030 -0.4222 -0.3365  0.3755
  218CHL    CL1 1214   1.400   2.558  -0.174  0.2360  0.0766  0.3316
  218CHL    CL2 1215   1.429   2.281  -0.091  0.5253 -0.1027 -0.1337
  218CHL      H 1216   1.309   2.448   0.021 -1.8682  1.6919 -2.1311
  219CHL     CL 1217   3.753   0.533   2.331 -0.3062 -0.5431  0.0169
  219CHL      C 1218   3.675   0.699   2.339  0.5547  0.5011 -0.1565
  219CHL    CL1 1219   3.522   0.695   2.446  0.0654 -0.0974  0.2031
  219CHL    CL2 1220   3.779   0.827   2.378  0.4647  0.2142  0.4222
  219CHL      H 1221   3.647   0.723   2.237 -1.2776 -0.2343  0.1431
  220CHL     CL 1222   2.595   1.836   1.352  0.0516 -0.2584  0.2813
  220CHL      C 1223   2.715   1.844   1.221  0.6234  0.0058 -0.2292
  220CHL    CL1 1224   2.670   1.707   1.107  0.1191 -0.1492  0.2131
  220CHL    CL2 1225   2.692   2.007   1.134  0.1448 -0.2374 -0.1801
  220CHL      H 1226   2.814   1.832   1.266  1.5386  1.2946 -1.7649
  221CHL     CL 1227   3.159   1.853   0.999  0.1790  0.2871 -0.3801
  221CHL      C 1228   3.000   1.881   0.911 -0.2202 -0.0887  1.0944
  221CHL    CL1 1229   2.978   2.053   0.911  0.0318 -0.2297  0.2458
  221CHL    CL2 1230   3.018   1.835   0.737 -0.1232 -0.0472  0.4411
  221CHL      H 1231   2.918   1.821   0.951 -0.5646  0.0956  0.6812
  222CHL     CL 1232   3.071   1.981   0.226  0.3530  0.5081 -0.0051
  222CHL      C 1233   3.217   2.084   0.204  0.4519  0.1001 -0.2327
  222CHL    CL1 1234   3.311   2.053   0.054 -0.4495 -0.0726 -0.0320
  222CHL    CL2 1235   3.167   2.260   0.211 -0.0877  0.0473  0.0076
  222CHL      H 1236   3.291   2.060   0.282 -0.4015 -2.5737 -0.1631
  223CHL     CL 1237   3.684   0.424   0.648  0.2371  0.0449  0.0450
  223CHL      C 1238   3.789   0.493   0.768  0.3135 -0.6239  0.4765
  223CHL    CL1 1239   3.738   0.658   0.797  0.2290  0.0554 -0.7120
  223CHL    CL2 1240   3.789   0.384   0.913 -0.1792 -0.1416 -0.5187
  223CHL      H 1241   3.892   0.493   0.731  0.1499  0.3815 -0.0274
  224CHL     CL 1242   0.072   3.775   3.228  0.3124  0.0857 -0.4827
  224CHL      C 1243   0.166   3.902   3.134  0.2949 -0.5208  1.4310
  224CHL    CL1 1244   0.340   3.928   3.177 -0.0707 -0.4509 -0.2302
  224CHL    CL2 1245   0.168   3.856   2.952 -0.2821  0.3364  0.0980
  224CHL      H 1246   0.117   4.000   3.141  1.5253  0.4764 -2.0079
  225CHL     CL 1247   1.828   1.520   1.663  0.1189 -0.2412  0.1428
  225CHL      C 1248   1.856   1.675   1.573 -0.1926 -0.2313  0.4983
  225CHL    CL1 1249   1.840   1.641   1.402 -0.0438  0.2015 -0.1523
  225CHL    CL2 1250   1.753   1.811   1.624  0.2161  0.1751 -0.0571
  225CHL      H 1251   1.956   1.704   1.606 -1.1252  2.1641  1.4310
  226CHL     CL 1252   2.434   2.863   1.172 -0.1998 -0.0758 -0.1339
  226CHL      C 1253   2.448   2.722   1.285 -0.1355 -0.7256  0.2852
  226CHL    CL1 1254   2.573   2.752   1.413  0.1160  0.0984  0.0403
  226CHL    CL2 1255   2.282   2.677   1.358 -0.1750  0.4152 -0.3337
  226CHL      H 1256   2.494   2.637   1.233  0.8546  0.0383 -0.1312
  227CHL     CL 1257   0.241   2.405   2.881 -0.1811  0.0527  0.2228
  227CHL      C 1258   0.144   2.343   3.019  0.3384 -0.2011  1.3159
  227CHL    CL1 1259   0.136   2.460   3.150 -0.2159  0.1956 -0.3237
  227CHL    CL2 1260  -0.029   2.292   2.953  0.0274 -0.2781 -0.1215
  227CHL      H 1261   0.191   2.250   3.054  0.2039 -0.5661  0.5563
  228CHL     CL 1262   2.514   3.008   1.732  0.0871  0.3594 -0.3351
  228CHL      C 1263   2.662   2.941   1.795 -0.4682 -0.0628 -0.2712
  228CHL    CL1 1264   2.613   2.853   1.933  0.1093 -0.1418 -0.1082
  228CHL    CL2 1265   2.751   2.840   1.679  0.3048 -0.0401  0.3062
  228CHL      H 1266   2.721   3.028   1.826  2.7982 -2.1241 -0.2057
  229CHL     CL 1267   0.983   1.971   1.480  0.0405  0.0626 -0.0385
  229CHL      C 1268   1.014   1.813   1.541 -0.0319  0.1758 -0.1190
  229CHL    CL1 1269   1.001   1.694   1.403  0.0547  0.1643 -0.3947
  229CHL    CL2 1270   1.174   1.804   1.613 -0.0184 -0.0046 -0.0347
  229CHL      H 1271   0.929   1.795   1.608  1.3943 -0.4556  1.5559
  230CHL     CL 1272   0.413   3.216   2.789  0.3023 -0.0627  0.2945
  230CHL      C 1273   0.307   3.271   2.653 -0.0215 -0.7086 -1.1972
  230CHL    CL1 1274   0.364   3.165   2.518  0.0113  0.0044 -0.2011
  230CHL    CL2 1275   0.134   3.251   2.702  0.0743 -0.4033 -0.4343
  230CHL      H 1276   0.333   3.374   2.628 -1.8061  0.3498  0.9876
  231CHL     CL 1277   1.947   3.039   0.407 -0.3281 -0.0608 -0.1553
  231CHL      C 1278   2.034   3.025   0.570  0.1944  0.4050 -0.2209
  231CHL    CL1 1279   1.989   3.155   0.675  0.0299 -0.1755 -0.0357
  231CHL    CL2 1280   1.990   2.865   0.642  0.1865 -0.1670 -0.0642
  231CHL      H 1281   2.142   3.025   0.551  0.2665 -0.3729  0.1458
  232CHL     CL 1282   0.539   1.954   1.012 -0.2548  0.0732 -0.2145
  232CHL      C 1283   0.599   1.841   1.134 -0.1085  0.5046 -0.6275
  232CHL    CL1 1284   0.758   1.904   1.202 -0.1145  0.0150 -0.0449
  232CHL    CL2 1285   0.474   1.820   1.261 -0.4854  0.8590 -0.1197
  232CHL      H 1286   0.628   1.740   1.102 -1.6668 -0.1485 -0.0544
  233CHL     CL 1287   0.203   0.291   0.365  0.0896  0.3066 -0.2263
  233CHL      C 1288   0.324   0.250   0.233 -0.2963 -0.3540 -0.1096
  233CHL    CL1 1289   0.316   0.066   0.212  0.0887 -0.3948  0.6297
  233CHL    CL2 1290   0.278   0.327   0.081  0.3626 -0.0903 -0.1069
  233CHL      H 1291   0.424   0.286   0.258  1.0188 -0.2101 -4.6429
  234CHL     CL 1292   3.760   2.716   2.654  0.3437  0.0130  0.2835
  234CHL      C 1293   3.670   2.850   2.745  0.2631 -0.1244 -0.1835
  234CHL    CL1 1294   3.597   2.790   2.902  0.1112  0.0551  0.0654
  234CHL    CL2 1295   3.779   2.979   2.767 -0.0230  0.2651  0.1250
  234CHL      H 1296   3.590   2.881   2.677 -0.1296 -1.7865 -0.5243
  235CHL     CL 1297   2.224   1.125   2.428 -0.2914  0.2998 -0.2339
  235CHL      C 1298   2.165   1.288   2.466  0.0990 -0.1562 -0.8145
  235CHL    CL1 1299   1.988   1.317   2.429  0.3640  0.3178  0.2286
  235CHL    CL2 1300   2.191   1.340   2.641  0.5892 -0.4235 -0.2777
  235CHL      H 1301   2.223   1.363   2.410  0.2986  0.5152  0.2435
  236CHL     CL 1302   0.346   3.047   1.313 -0.3464  0.5081  0.0812
  236CHL      C 1303   0.396   2.877   1.266  0.0766  0.2604 -0.1683
  236CHL    CL1 1304   0.436   2.852   1.095 -0.1631 -0.2497 -0.1247
  236CHL    CL2 1305   0.533   2.825   1.374  0.1231  0.0822 -0.1560
  236CHL      H 1306   0.309   2.814   1.290 -1.2564  2.0487 -0.0560
  237CHL     CL 1307   0.160   0.424   2.039 -0.4616 -0.1694 -0.3622
  237CHL      C 1308   0.261   0.432   1.899  0.1196  0.1241  0.3830
  237CHL    CL1 1309   0.439   0.465   1.945 -0.1751 -0.1545  0.3421
  237CHL    CL2 1310   0.255   0.261   1.830  0.1449 -0.2753 -0.2239
  237CHL      H 1311   0.217   0.511   1.838  1.9173  1.7651  1.1233
  238CHL     CL 1312   3.431   2.553   1.881 -0.4866 -0.4208 -0.0946
  238CHL      C 1313   3.285   2.654   1.884 -0.6946 -0.3946  0.0412
  238CHL    CL1 1314   3.223   2.684   1.721 -0.1220  0.0008  0.2817
  238CHL    CL2 1315   3.162   2.565   1.984 -0.3054  0.1011  0.3152
  238CHL      H 1316   3.317   2.745   1.937 -0.4620  0.8498 -2.1266
  239CHL     CL 1317   0.827   0.586   2.236  0.0178 -0.0925 -0.4957
  239CHL      C 1318   0.984   0.597   2.309 -0.3634 -0.1932 -0.7182
  239CHL    CL1 1319   0.967   0.646   2.482 -0.1160 -0.0644  0.4628
  239CHL    CL2 1320   1.073   0.431   2.290  0.1530  0.0505  0.0273
  239CHL      H 1321   1.032   0.675   2.249  1.8056 -1.9466 -1.4244
  240CHL     CL 1322   3.463   1.377   2.299  0.0476  0.1824  0.1619
  240CHL      C 1323   3.499   1.215   2.205 -0.3503 -0.0572  0.3314
  240CHL    CL1 1324   3.538   1.247   2.036 -0.0606 -0.1692  0.3732
  240CHL    CL2 1325   3.627   1.135   2.292 -0.0508 -0.1579 -0.1159
  240CHL      H 1326   3.406   1.157   2.217 -0.5900  0.5020  1.2984
  241CHL     CL 1327   3.338   2.249   2.071 -0.0534 -0.4856  0.0345
  241CHL      C 1328   3.284   2.299   2.234  0.7371 -0.2854  0.4606
  241CHL    CL1 1329   3.107   2.277   2.245 -0.2075 -0.2736 -0.2678
  241CHL    CL2 1330   3.384   2.201   2.350  0.0079 -0.5846  0.0695
  241CHL      H 1331   3.305   2.405   2.252  2.1060 -0.4974  0.2473
  242CHL     CL 1332   1.789   0.428   1.957  0.1827 -0.0632 -0.2349
  242CHL      C 1333   1.851   0.414   1.792  0.1142  0.3532  0.1683
  242CHL    CL1 1334   1.884   0.242   1.748  0.4388 -0.4272  0.2769
  242CHL    CL2 1335   1.715   0.474   1.690  0.1575  0.0994 -0.0640
  242CHL      H 1336   1.940   0.478   1.779  0.4422 -0.4539 -2.0013
  243CHL     CL 1337   3.293   0.407   1.174 -0.1549 -0.1244 -0.2072
  243CHL      C 1338   3.442   0.500   1.126  0.8841  0.0865  0.2138
  243CHL    CL1 1339   3.398   0.658   1.062 -0.3579 -0.0414 -0.1340
  243CHL    CL2 1340   3.555   0.510   1.267 -0.2491 -0.0408  0.6498
  243CHL      H 1341   3.493   0.437   1.052 -0.9946  0.0693 -1.1448
  244CHL     CL 1342   2.204   1.876   2.822 -0.1793 -0.0533  0.3492
  244CHL      C 1343   2.367   1.886   2.742 -0.8837 -0.3843 -0.1760
  244CHL    CL1 1344   2.486   2.002   2.831  0.0054 -0.1067 -0.2087
  244CHL    CL2 1345   2.453   1.723   2.770 -0.2547  0.7494 -0.3173
  244CHL      H 1346   2.354   1.915   2.638 -0.3062  1.1832  0.1752
  245CHL     CL 1347   0.968   3.533   0.480 -0.2853 -0.1430 -0.3738
  245CHL      C 1348   1.049   3.445   0.612  0.3644  0.4148 -0.0671
  245CHL    CL1 1349   0.933   3.355   0.719  0.0588 -0.2873  0.1882
  245CHL    CL2 1350   1.177   3.327   0.553 -0.0034  0.3817  0.2437
  245CHL      H 1351   1.077   3.520   0.686 -0.1645  0.0243  0.5391
  246CHL     CL 1352   0.778   1.014   2.168 -0.0418 -0.3079  0.2915
  246CHL      C 1353   0.615   0.956   2.140 -0.1231 -0.4230 -0.2853
  246CHL    CL1 1354   0.614   0.790   2.050 -0.4967 -0.1935 -0.1348
  246CHL    CL2 1355   0.529   0.922   2.296  0.2584 -0.0701 -0.0250
  246CHL      H 1356   0.560   1.033   2.085 -1.6380 -1.0237  0.3354
  247CHL     CL 1357   1.487   0.643   3.274  0.1987 -0.5688 -0.3776
  247CHL      C 1358   1.612   0.523   3.365 -1.0301 -0.1838  0.2969
  247CHL    CL1 1359   1.725   0.613   3.481 -0.0828 -0.0892 -0.1551
  247CHL    CL2 1360   1.541   0.384   3.445  0.0875  0.2530  0.5066
  247CHL      H 1361   1.682   0.488   3.288 -1.1415  1.4446 -0.5827
  248CHL     CL 1362   2.034   0.880   1.649 -0.0077 -0.4862  0.2539
  248CHL      C 1363   2.130   0.739   1.709 -0.6143  0.1915  0.2271
  248CHL    CL1 1364   2.101   0.587   1.609  0.0410 -0.3355  0.0661
  248CHL    CL2 1365   2.306   0.781   1.698 -0.1146 -0.3190  0.1838
  248CHL      H 1366   2.101   0.731   1.814 -1.7764 -0.1223 -0.0984
  249CHL     CL 1367   0.239   3.357   3.686 -0.3151 -0.0467  0.0478
  249CHL      C 1368   0.135   3.490   3.628  0.2308 -0.4920  0.2250
  249CHL    CL1 1369   0.175   3.639   3.741 -0.4481  0.0841  0.1766
  249CHL    CL2 1370   0.171   3.538   3.457 -0.0605  0.1965 -0.3634
  249CHL      H 1371   0.032   3.454   3.641  0.0380  0.3180  1.1052
  250CHL     CL 1372   0.754   1.317   2.019  0.4703 -0.4390  0.0265
  250CHL      C 1373   0.867   1.424   2.114 -0.4618  0.1369  0.1939
  250CHL    CL1 1374   0.797   1.593   2.142 -0.0858 -0.1447  0.1380
  250CHL    CL2 1375   0.902   1.350   2.272 -0.1159 -0.1557  0.0785
  250CHL      H 1376   0.965   1.430   2.066 -1.3520 -0.9449 -1.8485
  251CHL     CL 1377   2.952   2.058   1.417 -0.1693  0.0741  0.1152
  251CHL      C 1378   3.118   2.121   1.361  1.2676 -0.0929 -0.3325
  251CHL    CL1 1379   3.233   1.990   1.356  0.0894 -0.2142  0.0575
  251CHL    CL2 1380   3.102   2.212   1.209 -0.2186 -0.1419  0.1116
  251CHL      H 1381   3.153   2.186   1.441 -1.4646  0.3918  0.5599
  252CHL     CL 1382   1.838   3.481   0.438 -0.4846 -0.1855 -0.1710
  252CHL      C 1383   1.936   3.608   0.366 -0.4314 -0.3051  0.0142
  252CHL    CL1 1384   1.839   3.737   0.304  0.4191 -0.1157 -0.0934
  252CHL    CL2 1385   2.049   3.677   0.491  0.4507  0.4616  0.1248
  252CHL      H 1386   1.999   3.562   0.288  1.4622  0.3280  1.0932
  253CHL     CL 1387   3.563   1.065   2.663 -0.1387 -0.0162 -0.1041
  253CHL      C 1388   3.612   1.001   2.827  0.0622  0.1749 -0.0993
  253CHL    CL1 1389   3.641   0.826   2.809  0.0711 -0.2021 -0.1476
  253CHL    CL2 1390   3.750   1.088   2.906 -0.1262  0.0135 -0.4788
  253CHL      H 1391   3.527   1.020   2.893  0.0749  1.1324 -0.3524
  254CHL     CL 1392   1.535   1.888   3.373  0.0199 -0.1255 -0.3699
  254CHL      C 1393   1.436   1.973   3.497  0.3319  0.2724  0.2749
  254CHL    CL1 1394   1.264   1.930   3.452  0.2457  0.0596  0.3093
  254CHL    CL2 1395   1.477   1.922   3.665 -0.3252  0.0000 -0.1584
  254CHL      H 1396   1.445   2.081   3.487  0.4092  0.3767  1.4510
  255CHL     CL 1397   0.263   0.874   3.623  0.1614  0.1417  0.3635
  255CHL      C 1398   0.286   0.955   3.468  0.8535 -0.1189  0.4614
  255CHL    CL1 1399   0.311   1.134   3.503  0.0128  0.0905 -0.1950
  255CHL    CL2 1400   0.421   0.884   3.370  0.6876  0.1849 -0.3535
  255CHL      H 1401   0.193   0.950   3.410  0.8165  0.1226  0.4989
  256CHL     CL 1402   2.871   3.665   3.311 -0.2120 -0.3156  0.1307
  256CHL      C 1403   2.992   3.552   3.346  0.1054  0.2579  0.1571
  256CHL    CL1 1404   3.014   3.467   3.192  0.0113  0.2725 -0.0687
  256CHL    CL2 1405   3.147   3.639   3.385 -0.2036  0.1535 -0.3847
  256CHL      H 1406   2.969   3.476   3.421 -0.8945 -0.0601 -0.4546
  257CHL     CL 1407   0.333   0.539   2.944 -0.4477  0.2925  0.0784
  257CHL      C 1408   0.363   0.646   3.090  0.2323  0.1803 -0.1596
  257CHL    CL1 1409   0.271   0.579   3.236 -0.2347  0.0214 -0.2990
  257CHL    CL2 1410   0.532   0.659   3.138  0.0115  0.2332 -0.3398
  257CHL      H 1411   0.335   0.747   3.057  2.6838  0.2464 -2.3108
  258CHL     CL 1412   1.047   3.802   3.212  0.2138 -0.0375  0.2698
  258CHL      C 1413   0.887   3.810   3.135  0.6266  0.0829  0.2138
  258CHL    CL1 1414   0.796   3.953   3.178 -0.2458 -0.3268 -0.1199
  258CHL    CL2 1415   0.897   3.800   2.956  0.1521  0.3295 -0.5694
  258CHL      H 1416   0.831   3.720   3.163 -0.3015  0.7407  0.5325
  259CHL     CL 1417   2.522   1.371   1.892  0.1919 -0.4642 -0.2507
  259CHL      C 1418   2.643   1.495   1.837 -0.1031  0.1170 -0.2773
  259CHL    CL1 1419   2.557   1.615   1.738  0.0156 -0.2179  0.4723
  259CHL    CL2 1420   2.722   1.578   1.967 -0.2049  0.2125 -0.0372
  259CHL      H 1421   2.719   1.440   1.781  0.0559 -0.4579  0.4880
  260CHL     CL 1422   0.923   2.195   1.224 -0.4737 -0.1046 -0.2286
  260CHL      C 1423   1.051   2.317   1.251  0.4686  0.0026  0.0669
  260CHL    CL1 1424   1.065   2.424   1.114 -0.1514 -0.0337  0.0120
  260CHL    CL2 1425   1.022   2.414   1.404 -0.0876  0.5137  0.3651
  260CHL      H 1426   1.150   2.270   1.254 -0.2020 -1.8727 -2.9767
  261CHL     CL 1427   1.852   1.895   2.031 -0.0683  0.0199 -0.1112
  261CHL      C 1428   1.672   1.928   2.049 -0.3317  0.1549  0.5324
  261CHL    CL1 1429   1.634   2.097   2.029 -0.5525 -0.0996 -0.0351
  261CHL    CL2 1430   1.576   1.827   1.945 -0.0688 -0.5064 -0.0974
  261CHL      H 1431   1.653   1.901   2.153 -0.0380 -1.5675  0.1642
  262CHL     CL 1432   2.193   2.678   2.884  0.0077 -0.1799  0.4809
  262CHL      C 1433   2.346   2.786   2.890 -0.0681  0.2871 -0.4135
  262CHL    CL1 1434   2.418   2.800   2.721  0.4347 -0.3897 -0.1135
  262CHL    CL2 1435   2.295   2.957   2.936  0.3978  0.1143  0.0726
  262CHL      H 1436   2.411   2.753   2.971 -2.6916 -1.9557  0.9715
  263CHL     CL 1437   0.726   1.087   3.313 -0.2449 -0.0581 -0.1983
  263CHL      C 1438   0.724   1.264   3.272 -0.0423 -0.2070 -0.2272
  263CHL    CL1 1439   0.596   1.286   3.144 -0.1879  0.8816  0.3047
  263CHL    CL2 1440   0.672   1.359   3.412  0.1598 -0.1932 -0.0406
  263CHL      H 1441   0.822   1.294   3.234  0.4874  1.8541  2.4746
  264CHL     CL 1442   1.553   0.857   0.063  0.0884  0.0066  0.2203
  264CHL      C 1443   1.673   0.987   0.064  0.3758 -0.3931 -0.6303
  264CHL    CL1 1444   1.598   1.143  -0.008 -0.3242 -0.0174  0.2746
  264CHL    CL2 1445   1.702   1.037   0.233 -0.1514 -0.0724 -0.3070
  264CHL      H 1446   1.765   0.950   0.017  0.6067 -0.5732 -0.0538
  265CHL     CL 1447   2.748   1.882   2.249 -0.3680  0.0351 -0.0624
  265CHL      C 1448   2.727   1.959   2.412 -0.0440  0.3215 -0.0677
  265CHL    CL1 1449   2.555   2.019   2.428 -0.5487 -0.2354 -0.2729
  265CHL    CL2 1450   2.748   1.833   2.532 -0.0320 -0.2624  0.1526
  265CHL      H 1451   2.799   2.041   2.426 -0.2473  0.6593 -0.9569
  266CHL     CL 1452   3.285   1.175   0.971 -0.1843  0.3492  0.0314
  266CHL      C 1453   3.139   1.212   1.060  0.0620 -0.7899  1.0581
  266CHL    CL1 1454   3.058   1.346   0.965 -0.1235 -0.4256  0.0432
  266CHL    CL2 1455   3.035   1.071   1.072 -0.2981  0.0958  0.1586
  266CHL      H 1456   3.174   1.250   1.156  2.4153 -0.8131  0.2771
  267CHL     CL 1457   3.351   2.464   3.738 -0.0688  0.1692  0.2218
  267CHL      C 1458   3.201   2.466   3.658  0.5412  0.3285 -0.9194
  267CHL    CL1 1459   3.069   2.391   3.750 -0.4362 -0.0942  0.3288
  267CHL    CL2 1460   3.155   2.633   3.610 -0.0961 -0.0415 -0.2080
  267CHL      H 1461   3.216   2.401   3.570  0.9616 -0.6874 -0.1234
  268CHL     CL 1462   0.667   0.750   3.554 -0.4516  0.0526 -0.2239
  268CHL      C 1463   0.766   0.695   3.683 -0.7410  0.3247  0.1384
  268CHL    CL1 1464   0.933   0.640   3.625 -0.1120  0.0113  0.0268
  268CHL    CL2 1465   0.771   0.829   3.798 -0.1015 -0.2713  0.3430
  268CHL      H 1466   0.713   0.611   3.728  0.0521  0.0619  0.6042
  269CHL     CL 1467   2.853   3.161   0.606  0.3319  0.2522  0.1248
  269CHL      C 1468   2.927   3.311   0.663  0.5700  0.4293  0.5721
  269CHL    CL1 1469   2.821   3.417   0.754 -0.0616  0.0021  0.0563
  269CHL    CL2 1470   3.075   3.274   0.754  0.2541  0.1626 -0.2156
  269CHL      H 1471   2.963   3.370   0.578 -0.8007  1.8455  0.9404
  270CHL     CL 1472   2.095   2.302   2.960  0.1253 -0.1850 -0.0559
  270CHL      C 1473   2.265   2.265   3.001  0.6376  0.0976 -0.4895
  270CHL    CL1 1474   2.340   2.404   3.092 -0.3398  0.2199 -0.4412
  270CHL    CL2 1475   2.265   2.112   3.093 -0.3934  0.1919 -0.0354
  270CHL      H 1476   2.308   2.246   2.902 -0.4379  2.6695 -1.5314
  271CHL     CL 1477   1.754   0.750   1.405  0.4255  0.2862  0.4416
  271CHL      C 1478   1.584   0.742   1.343  0.0269  0.6935 -0.5414
  271CHL    CL1 1479   1.565   0.816   1.181 -0.4034 -0.0164 -0.1321
  271CHL    CL2 1480   1.527   0.570   1.336 -0.0350 -0.2937 -0.2502
  271CHL      H 1481   1.518   0.791   1.415 -1.0814 -1.5993  0.1178
  272CHL     CL 1482   0.450   0.145   2.449 -0.0620 -0.1314 -0.0520
  272CHL      C 1483   0.364   0.307   2.495  0.2074  0.1069  0.2477
  272CHL    CL1 1484   0.226   0.336   2.392  0.5302  0.0533 -0.4994
  272CHL    CL2 1485   0.317   0.296   2.667  0.3167  0.3242  0.2679
  272CHL      H 1486   0.431   0.394   2.492 -1.4406  1.4529  0.8049
  273CHL     CL 1487   3.301   2.563   3.013 -0.1670 -0.3563  0.2556
  273CHL      C 1488   3.186   2.575   3.151  0.1177  0.1012 -0.3233
  273CHL    CL1 1489   3.018   2.544   3.086  0.0434 -0.4334 -0.1696
  273CHL    CL2 1490   3.212   2.460   3.280 -0.1477  0.2222  0.0073
  273CHL      H 1491   3.187   2.677   3.189 -2.1037  0.1637 -0.2645
  274CHL     CL 1492   1.631   1.439   3.466 -0.2126  0.1348 -0.3355
  274CHL      C 1493   1.590   1.490   3.292 -0.1878  0.7993 -0.7254
  274CHL    CL1 1494   1.731   1.537   3.201 -0.0981 -0.1728  0.5070
  274CHL    CL2 1495   1.501   1.347   3.210 -0.5397  0.3524 -0.0584
  274CHL      H 1496   1.524   1.577   3.293 -2.3777 -0.7385 -2.0721
  275CHL     CL 1497   1.576   3.788   3.513 -0.3531  0.1358 -0.6111
  275CHL      C 1498   1.645   3.820   3.672  0.9634  0.3349 -0.1403
  275CHL    CL1 1499   1.538   3.941   3.750 -0.0896  0.4468 -0.1249
  275CHL    CL2 1500   1.657   3.661   3.757  0.2480 -0.2075 -0.2647
  275CHL      H 1501   1.744   3.866   3.670  1.2111 -0.1871 -1.8144
  276CHL     CL 1502   2.999   1.627   2.603  0.4697 -0.1306  0.2835
  276CHL      C 1503   3.142   1.732   2.625 -0.6719 -0.3631  0.4700
  276CHL    CL1 1504   3.132   1.859   2.498  0.2395 -0.2570  0.1922
  276CHL    CL2 1505   3.142   1.792   2.794 -0.3589  0.2890  0.4123
  276CHL      H 1506   3.236   1.675   2.617 -0.2238 -0.2044  3.5189
  277CHL     CL 1507   1.696   1.343   1.382  0.0961  0.0058 -0.1160
  277CHL      C 1508   1.682   1.187   1.473  0.0170 -0.3680  0.0633
  277CHL    CL1 1509   1.644   1.222   1.653  0.0913  0.3130  0.5299
  277CHL    CL2 1510   1.537   1.077   1.418 -0.0675  0.3017  0.1483
  277CHL      H 1511   1.772   1.126   1.461  0.8251  0.1335  2.8042
  278CHL     CL 1512   3.121   0.715   2.592 -0.1115 -0.1177 -0.0095
  278CHL      C 1513   3.277   0.766   2.666  0.6537 -0.2962  0.2510
  278CHL    CL1 1514   3.243   0.897   2.786 -0.0686  0.1353 -0.0399
  278CHL    CL2 1515   3.363   0.625   2.732 -0.2098 -0.2982  0.0008
  278CHL      H 1516   3.337   0.808   2.585 -1.0401  0.3011 -0.7525
  279CHL     CL 1517   1.821   3.061   3.627 -0.1313  0.0155  0.4683
  279CHL      C 1518   1.831   2.945   3.766 -0.7122 -0.7347  1.1359
  279CHL    CL1 1519   1.763   2.786   3.706 -0.0680 -0.1299  0.1397
  279CHL    CL2 1520   2.005   2.917   3.811  0.1087  0.4856  0.4360
  279CHL      H 1521   1.781   2.979   3.858 -0.8097 -1.3417  1.3136
  280CHL     CL 1522   3.186   1.930   1.697 -0.2888  0.1684  0.0839
  280CHL      C 1523   3.341   1.851   1.656 -1.0712  0.1927  0.1673
  280CHL    CL1 1524   3.427   1.845   1.801 -0.1877  0.2172  0.1919
  280CHL    CL2 1525   3.307   1.681   1.598  0.6307  0.0245  0.2516
  280CHL      H 1526   3.396   1.912   1.583  1.0971 -1.0180  0.7098
  281CHL     CL 1527   0.700   3.720   2.702 -0.0357 -0.0837 -0.0069
  281CHL      C 1528   0.523   3.744   2.759  0.5125  1.0937  0.0576
  281CHL    CL1 1529   0.449   3.585   2.808  0.0312  0.2191 -0.1175
  281CHL    CL2 1530   0.514   3.863   2.896 -0.0816 -0.1963  0.1365
  281CHL      H 1531   0.466   3.784   2.674 -0.7478  0.0359  0.3750
  282CHL     CL 1532   1.208   3.471   0.128  0.5231  0.0066  0.0925
  282CHL      C 1533   1.189   3.650   0.114  0.2487 -0.1438 -0.4687
  282CHL    CL1 1534   1.025   3.688   0.161  0.0683  0.1119  0.3208
  282CHL    CL2 1535   1.299   3.741   0.223 -0.1037 -0.0382  0.3323
  282CHL      H 1536   1.208   3.692   0.015 -2.7023  0.7537 -0.7400
  283CHL     CL 1537   1.972   0.001   2.010  0.1699 -0.3569 -0.0872
  283CHL      C 1538   2.146  -0.042   2.017  0.6534 -0.4215  0.2330
  283CHL    CL1 1539   2.242   0.099   2.086  0.5113 -0.1096 -0.3290
  283CHL    CL2 1540   2.156  -0.194   2.103 -0.3652 -0.0590  0.1189
  283CHL      H 1541   2.173  -0.055   1.912 -2.1997 -0.3832 -0.6054
  284CHL     CL 1542   1.584   0.236   0.378  0.1106  0.0430  0.0436
  284CHL      C 1543   1.459   0.353   0.443  0.4117 -0.8100 -0.4630
  284CHL    CL1 1544   1.307   0.265   0.476  0.1564  0.0275 -0.2623
  284CHL    CL2 1545   1.522   0.418   0.594 -0.0894 -0.2061 -0.0072
  284CHL      H 1546   1.439   0.434   0.373  0.2440 -1.0560 -0.7040
  285CHL     CL 1547   1.221   2.025   0.030  0.0769  0.2137  0.2180
  285CHL      C 1548   1.053   1.995  -0.023  0.1264  0.2983 -0.8373
  285CHL    CL1 1549   0.940   1.949   0.101  0.2037 -0.3930  0.4021
  285CHL    CL2 1550   0.994   2.139  -0.109 -0.0125  0.2852 -0.0520
  285CHL      H 1551   1.054   1.918  -0.100 -3.3906 -0.4196 -0.2979
  286CHL     CL 1552   1.793   2.735   3.333  0.3315  0.2363 -0.4347
  286CHL      C 1553   1.926   2.606   3.311  0.6784 -0.5482 -0.4286
  286CHL    CL1 1554   2.027   2.663   3.165  0.3969  0.5486  0.1979
  286CHL    CL2 1555   2.036   2.608   3.457  0.0259 -0.4504 -0.1171
  286CHL      H 1556   1.885   2.508   3.287  1.7985 -1.5475  1.5275
  287CHL     CL 1557   0.507   2.593   3.452 -0.6143  0.4311  0.7406
  287CHL      C 1558   0.403   2.574   3.606 -0.3416  0.5409  0.2587
  287CHL    CL1 1559   0.462   2.671   3.737  0.3974  0.1145 -0.0754
  287CHL    CL2 1560   0.231   2.610   3.577 -0.4366  0.3791  0.1383
  287CHL      H 1561   0.409   2.470   3.639 -1.0233  0.2271 -0.5869
  288CHL     CL 1562   2.675   2.469   3.196 -0.2171  0.0047  0.0266
  288CHL      C 1563   2.709   2.370   3.346  0.3989 -0.7082  0.6595
  288CHL    CL1 1564   2.638   2.207   3.335 -0.2332 -0.4208  0.0264
  288CHL    CL2 1565   2.892   2.358   3.358  0.5152 -0.0145  0.5484
  288CHL      H 1566   2.665   2.424   3.431  0.6127  1.2272 -0.3874
  289CHL     CL 1567   2.720   2.621   0.042  0.1349 -0.4140 -0.0152
  289CHL      C 1568   2.697   2.727  -0.096 -0.3385  0.2570  0.3378
  289CHL    CL1 1569   2.741   2.648  -0.259  0.3758  0.2975 -0.0920
  289CHL    CL2 1570   2.524   2.781  -0.097 -0.1511  0.6141 -0.1840
  289CHL      H 1571   2.767   2.811  -0.089  1.9170 -1.6450  1.8659
  290CHL     CL 1572   0.766   0.136   1.706  0.0786 -0.1235 -0.1595
  290CHL      C 1573   0.609   0.103   1.620  0.4836  0.3595 -0.2570
  290CHL    CL1 1574   0.537   0.260   1.566  0.0692 -0.2647 -0.2534
  290CHL    CL2 1575   0.645   0.004   1.474  0.3580  0.1507  0.1619
  290CHL      H 1576   0.538   0.052   1.685 -0.0952 -0.9836 -1.8905
  291CHL     CL 1577   2.602   0.275   1.470  0.1534  0.0712 -0.1817
  291CHL      C 1578   2.731   0.374   1.414 -0.4860 -0.3985  0.5396
  291CHL    CL1 1579   2.858   0.266   1.337 -0.0496  0.0409 -0.1900
  291CHL    CL2 1580   2.664   0.493   1.290 -0.1779  0.1730 -0.1808
  291CHL      H 1581   2.770   0.428   1.500  0.5426  0.0731 -0.1974
  292CHL     CL 1582   0.879   3.268   1.728  0.0931  0.2314 -0.2011
  292CHL      C 1583   0.836   3.102   1.676  0.4903 -0.3574 -0.1187
  292CHL    CL1 1584   0.925   2.979   1.780 -0.0831 -0.1802 -0.1441
  292CHL    CL2 1585   0.652   3.073   1.668 -0.5532 -0.0908 -0.4780
  292CHL      H 1586   0.860   3.077   1.572 -0.9455 -1.2574 -0.2572
  293CHL     CL 1587   1.008   2.375   0.235 -0.7292 -0.2599 -0.1529
  293CHL      C 1588   0.842   2.302   0.267  0.7377 -0.3952 -0.1327
  293CHL    CL1 1589   0.810   2.235   0.444 -0.1700 -0.0676 -0.1639
  293CHL    CL2 1590   0.725   2.432   0.247 -0.2023  0.1425 -0.1521
  293CHL      H 1591   0.818   2.224   0.195 -3.0181 -0.2209  0.7553
  294CHL     CL 1592   1.195   0.991   1.777 -0.0270 -0.1439 -0.2784
  294CHL      C 1593   1.166   0.898   1.629 -0.7177  0.6128 -0.1052
  294CHL    CL1 1594   1.130   0.995   1.486 -0.1147 -0.2302  0.1762
  294CHL    CL2 1595   1.301   0.777   1.605 -0.2140  0.5218 -0.1341
  294CHL      H 1596   1.072   0.843   1.636 -0.7536  0.5909 -0.7131
  295CHL     CL 1597   1.464   1.812   2.345  0.2578  0.0443  0.0525
  295CHL      C 1598   1.357   1.900   2.467  0.3331  0.4429 -0.1827
  295CHL    CL1 1599   1.283   1.795   2.588 -0.1047  0.0312  0.0370
  295CHL    CL2 1600   1.454   2.021   2.557 -0.0975  0.0030  0.1394
  295CHL      H 1601   1.276   1.955   2.418  0.3921  2.6747  2.0449
  296CHL     CL 1602   0.060   2.885   1.086  0.2005 -0.1961  0.1492
  296CHL      C 1603  -0.070   2.991   1.031  0.0117 -0.0849  0.0944
  296CHL    CL1 1604  -0.007   3.108   0.917  0.0601  0.0367 -0.1818
  296CHL    CL2 1605  -0.193   2.896   0.949  0.1839 -0.0717  0.3281
  296CHL      H 1606  -0.119   3.050   1.109 -2.2001 -3.0667  1.1527
  297CHL     CL 1607   3.458   3.346   3.309 -0.3984 -0.1106  0.0160
  297CHL      C 1608   3.485   3.427   3.458 -0.1414 -0.7760 -0.1854
  297CHL    CL1 1609   3.593   3.331   3.565 -0.2769 -0.3300 -0.4111
  297CHL    CL2 1610   3.544   3.598   3.418 -0.1700  0.1380  0.0716
  297CHL      H 1611   3.385   3.425   3.503  0.4630 -1.1909  1.2101
  298CHL     CL 1612   2.210   0.261   1.440 -0.2693  0.0088 -0.2330
  298CHL      C 1613   2.078   0.146   1.384 -0.3483  0.5549  0.1198
  298CHL    CL1 1614   2.099   0.088   1.216  0.2559 -0.2280  0.0867
  298CHL    CL2 1615   2.072   0.014   1.497 -0.0044 -0.0572  0.1224
  298CHL      H 1616   1.978   0.190   1.384 -2.0001 -2.8522 -0.8515
  299CHL     CL 1617   0.515   2.432   1.884  0.1329  0.0794 -0.3132
  299CHL      C 1618   0.357   2.446   1.959 -0.4379  0.3200  0.4159
  299CHL    CL1 1619   0.233   2.367   1.847  0.8670  0.3359  0.0397
  299CHL    CL2 1620   0.357   2.346   2.105 -0.3928 -0.1851 -0.0640
  299CHL      H 1621   0.338   2.550   1.989  1.2649  0.3510  1.4902
  300CHL     CL 1622   0.042   2.574   0.677  0.0793  0.3318  0.2663
  300CHL      C 1623   0.219   2.606   0.702  0.3173 -0.2161 -0.4283
  300CHL    CL1 1624   0.274   2.747   0.601  0.2300 -0.0698 -0.2919
  300CHL    CL2 1625   0.261   2.641   0.883 -0.4832 -0.0968  0.4658
  300CHL      H 1626   0.279   2.518   0.678 -0.9676 -0.9284 -1.0992
  301CHL     CL 1627   1.303   1.212   3.479 -0.4680  0.7079  0.1297
  301CHL      C 1628   1.163   1.190   3.370  0.0062 -0.4386 -0.0192
  301CHL    CL1 1629   1.134   1.330   3.261 -0.2671  0.1048 -0.1443
  301CHL    CL2 1630   1.195   1.044   3.273 -0.1593  0.0019 -0.4842
  301CHL      H 1631   1.073   1.172   3.430  0.5120 -0.0367  0.8881
  302CHL     CL 1632   3.333   1.445   1.298  0.4157  0.0455 -0.1722
  302CHL      C 1633   3.488   1.362   1.281  0.1588  0.1605 -0.1686
  302CHL    CL1 1634   3.468   1.175   1.295  0.2935 -0.2553  0.4336
  302CHL    CL2 1635   3.574   1.411   1.127  0.1004  0.1389 -0.3258
  302CHL      H 1636   3.542   1.395   1.370 -0.7991 -0.3490  0.6148
  303CHL     CL 1637   1.711   1.414   2.753 -0.0447  0.2942  0.0296
  303CHL      C 1638   1.770   1.576   2.811  0.4294  0.3698 -0.5795
  303CHL    CL1 1639   1.941   1.595   2.772  0.1946 -0.4169  0.3940
  303CHL    CL2 1640   1.676   1.704   2.734 -0.3179  0.0372 -0.2196
  303CHL      H 1641   1.764   1.584   2.920  0.5161 -0.7901 -0.4819
  304CHL     CL 1642   1.225   0.057   3.606  0.4424  0.5796  0.0040
  304CHL      C 1643   1.039   0.067   3.584 -0.4847  0.0796 -0.5139
  304CHL    CL1 1644   0.961  -0.100   3.607 -0.0583  0.0954 -0.1678
  304CHL    CL2 1645   0.962   0.185   3.703 -0.2548 -0.0300 -0.1683
  304CHL      H 1646   1.033   0.106   3.482  3.0086 -1.0062 -1.2941
  305CHL     CL 1647   1.203   3.488   1.842 -0.0234 -0.1891 -0.0826
  305CHL      C 1648   1.049   3.515   1.926  0.2070  0.2841  0.1097
  305CHL    CL1 1649   1.065   3.638   2.066  0.3205 -0.0378 -0.1074
  305CHL    CL2 1650   0.934   3.581   1.808  0.2526  0.3830  0.2806
  305CHL      H 1651   1.016   3.430   1.986 -1.3491  2.8144  3.1573
  306CHL     CL 1652   2.045   0.165   0.771  0.0847  0.0733 -0.3406
  306CHL      C 1653   1.866   0.184   0.770  0.0318  0.5324  0.3201
  306CHL    CL1 1654   1.791   0.062   0.658 -0.6361  0.5183  0.0154
  306CHL    CL2 1655   1.809   0.164   0.941  0.0118  0.1364 -0.1790
  306CHL      H 1656   1.841   0.287   0.746 -0.6623  0.5094  0.8958
  307CHL     CL 1657   2.582   2.505   2.108  0.6738 -0.5087 -0.4153
  307CHL      C 1658   2.651   2.344   2.105  0.1839  0.5135  0.2559
  307CHL    CL1 1659   2.763   2.321   2.243 -0.3250  0.2387  0.4028
  307CHL    CL2 1660   2.531   2.213   2.091  0.1023  0.0147  0.4295
  307CHL      H 1661   2.721   2.331   2.022  0.1963  0.1138  0.3254
  308CHL     CL 1662   0.023   1.445   2.853  0.2291 -0.3548 -0.2051
  308CHL      C 1663   0.030   1.456   2.674 -0.6877 -0.6299 -0.0383
  308CHL    CL1 1664  -0.094   1.351   2.608 -0.3557  0.2715  0.0724
  308CHL    CL2 1665  -0.010   1.623   2.629 -0.0678  0.0962 -0.4716
  308CHL      H 1666   0.131   1.422   2.649  0.5516  0.2758  3.1732
  309CHL     CL 1667   2.488   3.775   1.097 -0.1355 -0.2339 -0.0005
  309CHL      C 1668   2.545   3.941   1.031  0.5371  0.0641 -0.7184
  309CHL    CL1 1669   2.466   4.081   1.121  0.0559 -0.2769  0.1185
  309CHL    CL2 1670   2.723   3.948   1.022 -0.4469  0.4862  0.0235
  309CHL      H 1671   2.516   3.954   0.926 -0.3268 -0.1380 -0.5154
  310CHL     CL 1672   0.534   0.015   3.530 -0.4350  0.0319  0.3096
  310CHL      C 1673   0.516  -0.025   3.704 -0.0567 -0.2066 -0.2020
  310CHL    CL1 1674   0.548  -0.204   3.736  0.2540  0.1200 -0.2198
  310CHL    CL2 1675   0.620   0.076   3.807  0.0475  0.0310 -0.0031
  310CHL      H 1676   0.410  -0.002   3.723 -0.1609 -1.2201  0.5386
  311CHL     CL 1677   0.358   2.131   0.018 -0.3515  0.0280 -0.3780
  311CHL      C 1678   0.518   2.068   0.038 -0.1367 -0.0407 -0.3666
  311CHL    CL1 1679   0.625   2.188  -0.029 -0.2499  0.1204 -0.1558
  311CHL    CL2 1680   0.560   2.047   0.212  0.6131  0.1069 -0.1649
  311CHL      H 1681   0.523   1.967  -0.003 -0.6507 -0.9986  1.7662
  312CHL     CL 1682   3.507   0.422   0.131  0.0772 -0.1496 -0.1764
  312CHL      C 1683   3.393   0.396  -0.008  0.3916  0.3669  0.2020
  312CHL    CL1 1684   3.252   0.508   0.016 -0.6473  0.2095 -0.2865
  312CHL    CL2 1685   3.460   0.469  -0.155 -0.2237  0.2869 -0.2763
  312CHL      H 1686   3.361   0.291  -0.010  1.3935  0.0611 -0.1249
  313CHL     CL 1687   2.011   1.810   3.115 -0.2952  0.1324  0.0526
  313CHL      C 1688   1.913   1.955   3.118  0.2910 -0.6825  0.2376
  313CHL    CL1 1689   1.758   1.917   3.048  0.0616  0.3440  0.2173
  313CHL    CL2 1690   1.912   2.025   3.282  0.0225  0.0955 -0.2015
  313CHL      H 1691   1.967   2.032   3.062  1.0010 -0.1263  1.6555
  314CHL     CL 1692   2.336   3.572   0.293  0.3791 -0.1133  0.1791
  314CHL      C 1693   2.385   3.462   0.428  0.3687 -0.1553 -0.3428
  314CHL    CL1 1694   2.268   3.328   0.446 -0.0326 -0.2822  0.0546
  314CHL    CL2 1695   2.537   3.385   0.387  0.6004  0.2374  0.2133
  314CHL      H 1696   2.383   3.514   0.524  0.6171 -2.2303  0.8632
  315CHL     CL 1697   3.598   2.002   3.554  0.3555  0.0411 -0.2991
  315CHL      C 1698   3.755   2.068   3.613  0.1775 -0.4793  0.7108
  315CHL    CL1 1699   3.746   2.140   3.777 -0.3083  0.6397  0.4890
  315CHL    CL2 1700   3.886   1.950   3.599  0.4325 -0.3912 -0.3900
  315CHL      H 1701   3.776   2.150   3.544  0.7024 -3.3982 -2.8527
  316CHL     CL 1702   1.796   2.156   0.533  0.3428 -0.1967 -0.0184
  316CHL      C 1703   1.772   2.166   0.352  0.6610  0.5719 -0.4629
  316CHL    CL1 1704   1.629   2.067   0.310 -0.5500 -0.1251  0.1729
  316CHL    CL2 1705   1.745   2.336   0.302 -0.1397  0.2771  0.0673
  316CHL      H 1706   1.863   2.128   0.305  0.8280  0.6535 -0.2088
  317CHL     CL 1707   2.515   0.029   3.466  0.3083  0.3474 -0.4631
  317CHL      C 1708   2.433  -0.119   3.397  0.2614 -0.2749 -0.7945
  317CHL    CL1 1709   2.531  -0.169   3.257  0.0168 -0.2733 -0.0716
  317CHL    CL2 1710   2.437  -0.251   3.531 -0.0894 -0.0467  0.1176
  317CHL      H 1711   2.329  -0.101   3.367 -0.2400 -0.9286  0.4403
  318CHL     CL 1712   1.255   3.684   0.656 -0.4211  0.0846 -0.0499
  318CHL      C 1713   1.262   3.727   0.827  0.1375  0.4733  0.3544
  318CHL    CL1 1714   1.373   3.866   0.847 -0.0204 -0.1865 -0.3154
  318CHL    CL2 1715   1.097   3.777   0.867  0.3160 -0.0324  0.1124
  318CHL      H 1716   1.274   3.635   0.885 -0.4792  0.8342  1.0731
  319CHL     CL 1717   1.062   0.976   3.597 -0.0390  0.2496  0.2280
  319CHL      C 1718   1.054   1.046   3.756  0.3474 -0.6064 -0.0510
  319CHL    CL1 1719   1.206   1.120   3.794 -0.2007 -0.3550  0.1258
  319CHL    CL2 1720   0.924   1.162   3.763  0.0392 -0.1682 -0.4266
  319CHL      H 1721   1.031   0.973   3.834 -2.8851 -2.5378 -2.5948
  320CHL     CL 1722   2.147   2.110   0.587 -0.3502  0.1460  0.2412
  320CHL      C 1723   2.241   2.129   0.439 -0.2426 -0.8878 -0.2079
  320CHL    CL1 1724   2.130   2.170   0.308 -0.1672 -0.0731  0.5905
  320CHL    CL2 1725   2.368   2.263   0.463  0.2987  0.3390 -0.0442
  320CHL      H 1726   2.298   2.038   0.416  0.6444 -0.8288  1.5986
  321CHL     CL 1727   1.882   0.232   2.321 -0.0528  0.3053  0.0801
  321CHL      C 1728   1.763   0.353   2.379  0.7300  0.0445  0.1620
  321CHL    CL1 1729   1.709   0.308   2.549  0.2246 -0.2793  0.4710
  321CHL    CL2 1730   1.832   0.519   2.394  0.4111  0.0994  0.1434
  321CHL      H 1731   1.677   0.359   2.311  1.0730  1.8626 -0.1503
  322CHL     CL 1732   0.529   3.154   0.607  0.1669  0.0618  0.2072
  322CHL      C 1733   0.482   3.201   0.771  0.3629  0.1456 -0.5203
  322CHL    CL1 1734   0.387   3.061   0.849 -0.3791 -0.2831 -0.0419
  322CHL    CL2 1735   0.637   3.240   0.866  0.2848 -0.4680  0.2358
  322CHL      H 1736   0.412   3.285   0.773  0.8899  0.5796  0.1722
  323CHL     CL 1737   1.826   3.251   1.407  0.0842 -0.1064 -0.3941
  323CHL      C 1738   1.825   3.409   1.320  0.1061  0.3681  0.1615
  323CHL    CL1 1739   1.662   3.479   1.326  0.1286  0.0018 -0.1546
  323CHL    CL2 1740   1.932   3.517   1.418 -0.4028 -0.3908  0.1416
  323CHL      H 1741   1.857   3.406   1.215  0.8864  1.4059  0.3494
  324CHL     CL 1742   1.774   3.576   2.395 -0.3175 -0.0320  0.1158
  324CHL      C 1743   1.806   3.632   2.566 -0.3876  0.6518  0.1015
  324CHL    CL1 1744   1.981   3.670   2.597 -0.0818  0.0872 -0.1146
  324CHL    CL2 1745   1.710   3.775   2.596 -0.1825  0.3512  0.1056
  324CHL      H 1746   1.783   3.556   2.641 -2.0176  0.3962 -0.6081
  325CHL     CL 1747   2.879   0.521   3.749  0.0319 -0.2405  0.0520
  325CHL      C 1748   2.883   0.484   3.575  0.0183 -0.1858  0.1572
  325CHL    CL1 1749   2.758   0.575   3.483  0.0822  0.1501 -0.0439
  325CHL    CL2 1750   3.048   0.538   3.520 -0.0060  0.2633  0.2485
  325CHL      H 1751   2.879   0.379   3.543  1.5252  0.1832 -1.3948
  326CHL     CL 1752   3.220   3.051   1.781 -0.2614  0.3162 -0.3616
  326CHL      C 1753   3.070   3.109   1.836 -0.1534 -0.5174 -0.5863
  326CHL    CL1 1754   2.954   3.145   1.700 -0.3417 -0.4761  0.2687
  326CHL    CL2 1755   2.999   2.987   1.932  0.0367 -0.1379  0.4574
  326CHL      H 1756   3.095   3.199   1.893  1.1629 -0.5440 -1.1005
  327CHL     CL 1757   1.773   3.315   2.116 -0.1778  0.0135 -0.0986
  327CHL      C 1758   1.663   3.221   2.222 -0.5324 -0.6000 -0.8100
  327CHL    CL1 1759   1.724   3.214   2.398 -0.5355 -0.4410  0.2122
  327CHL    CL2 1760   1.509   3.315   2.237 -0.0139 -0.1169 -0.1392
  327CHL      H 1761   1.642   3.124   2.176 -1.3201 -0.4347 -0.8219
  328CHL     CL 1762   2.743   2.693   2.881  0.1641  0.5049  0.0276
  328CHL      C 1763   2.876   2.732   2.764 -0.0476 -0.3270  0.5012
  328CHL    CL1 1764   2.805   2.802   2.612  0.0752  0.2079  0.1039
  328CHL    CL2 1765   3.015   2.826   2.832  0.0516  0.2585 -0.3340
  328CHL      H 1766   2.912   2.636   2.725 -2.5206 -1.3528  0.5975
  329CHL     CL 1767   3.607   0.269   1.960  0.2234  0.0873  0.4375
  329CHL      C 1768   3.511   0.403   1.875  0.1245 -0.5950 -0.6914
  329CHL    CL1 1769   3.538   0.558   1.954  0.1622 -0.3087 -0.3278
  329CHL    CL2 1770   3.555   0.410   1.705  0.1954  0.0098  0.2217
  329CHL      H 1771   3.403   0.387   1.877 -0.2634  1.0906 -3.1566
  330CHL     CL 1772   0.063   3.466   1.361  0.0423  0.0693 -0.0521
  330CHL      C 1773   0.041   3.483   1.184  0.0999 -0.2171  0.5265
  330CHL    CL1 1774   0.132   3.335   1.120 -0.1656  0.0180 -0.1594
  330CHL    CL2 1775  -0.141   3.456   1.137 -0.1519  0.1950 -0.4665
  330CHL      H 1776   0.086   3.571   1.136  1.3361 -2.0019 -1.8354
  331CHL     CL 1777   2.956   1.575   0.540  0.0697 -0.0396 -0.1083
  331CHL      C 1778   2.863   1.662   0.420  0.4158 -0.0996  0.1229
  331CHL    CL1 1779   2.702   1.594   0.394  0.3531  0.0374  0.2282
  331CHL    CL2 1780   2.865   1.843   0.455  0.2892  0.2182  0.3754
  331CHL      H 1781   2.923   1.648   0.330  1.0632 -1.0425  0.6838
  332CHL     CL 1782   0.493   3.258   0.280 -0.0592 -0.1309  0.3059
  332CHL      C 1783   0.435   3.426   0.232 -0.0390 -0.1135  0.2304
  332CHL    CL1 1784   0.280   3.460   0.313 -0.3892  0.1827  0.0187
  332CHL    CL2 1785   0.563   3.545   0.273 -0.3148 -0.3359 -0.0252
  332CHL      H 1786   0.420   3.426   0.124 -0.3086 -0.1558  0.2667
  333CHL     CL 1787   0.355   2.255   3.438  0.0364  0.2397 -0.0141
  333CHL      C 1788   0.400   2.100   3.381 -0.4655  0.0336  0.5488
  333CHL    CL1 1789   0.504   2.121   3.237  0.4967 -0.4199  0.0302
  333CHL    CL2 1790   0.482   1.996   3.502  0.4207  0.4906  0.3664
  333CHL      H 1791   0.306   2.049   3.357  0.1660 -0.5367 -0.8275
  334CHL     CL 1792   2.705   1.162   3.387  0.3633  0.5144 -0.1204
  334CHL      C 1793   2.591   1.075   3.271 -0.0802 -0.4649  0.1607
  334CHL    CL1 1794   2.621   1.148   3.111 -0.2115  0.1479  0.3422
  334CHL    CL2 1795   2.655   0.906   3.281 -0.3651  0.1559 -0.4163
  334CHL      H 1796   2.494   1.096   3.316 -1.1141  0.8899 -2.4714
  335CHL     CL 1797   3.104   1.479   3.030  0.3320  0.1579 -0.5630
  335CHL      C 1798   3.048   1.525   3.201  0.0522 -0.0937 -0.0928
  335CHL    CL1 1799   3.175   1.500   3.324 -0.1675  0.4303  0.0175
  335CHL    CL2 1800   3.011   1.700   3.223  0.0344  0.2063  0.4323
  335CHL      H 1801   2.957   1.478   3.241 -0.6676 -0.2468 -1.8069
  336CHL     CL 1802   2.948   0.726   1.932  0.5246  0.2035  0.0389
  336CHL      C 1803   2.962   0.546   1.912  0.4703 -0.2371  0.2539
  336CHL    CL1 1804   2.951   0.509   1.738 -0.2603 -0.1050 -0.6364
  336CHL    CL2 1805   3.114   0.484   1.976 -0.2672  0.1747  0.3349
  336CHL      H 1806   2.880   0.501   1.969 -0.3667 -0.1089 -0.8291
  337CHL     CL 1807   3.530   3.683   1.342 -0.0903 -0.1558 -0.0195
  337CHL      C 1808   3.553   3.832   1.246  0.0347  0.2215  0.4244
  337CHL    CL1 1809   3.492   3.974   1.339  0.4056  0.0041  0.3719
  337CHL    CL2 1810   3.735   3.844   1.219  0.2069  0.5412 -0.0199
  337CHL      H 1811   3.501   3.836   1.150  3.2467  1.0570 -1.4465
  338CHL     CL 1812   1.141   3.202   2.077 -0.0323 -0.0557 -0.0852
  338CHL      C 1813   1.280   3.086   2.065  0.0214  0.9190 -0.3209
  338CHL    CL1 1814   1.203   2.924   2.029 -0.3122  0.1894 -0.1453
  338CHL    CL2 1815   1.416   3.121   1.954  0.3847  0.4010 -0.3124
  338CHL      H 1816   1.329   3.076   2.162  1.6602 -0.7006 -1.2555
  339CHL     CL 1817   3.344   1.551   3.685 -0.0690 -0.0010 -0.4933
  339CHL      C 1818   3.288   1.554   3.852 -0.4257 -0.2510 -0.0424
  339CHL    CL1 1819   3.370   1.692   3.938  0.0981 -0.0587  0.0875
  339CHL    CL2 1820   3.100   1.575   3.854  0.0414  0.1161 -0.1869
  339CHL      H 1821   3.325   1.462   3.897 -0.1912  1.0703  2.6817
  340CHL     CL 1822   0.732   0.891   3.014 -0.1779  0.4595  0.1867
  340CHL      C 1823   0.902   0.923   2.961 -0.8066 -0.0863  0.3896
  340CHL    CL1 1824   0.943   0.873   2.784  0.1938  0.4544 -0.3413
  340CHL    CL2 1825   0.945   1.091   2.990  0.2710  0.0448 -0.1946
  340CHL      H 1826   0.964   0.854   3.019  1.8696  0.9862 -1.0097
  341CHL     CL 1827   0.901   3.338   2.523 -0.2772  0.2947 -0.0018
  341CHL      C 1828   0.836   3.438   2.387  0.5709  0.3101  0.2692
  341CHL    CL1 1829   0.668   3.464   2.425 -0.1253  0.2411 -0.3143
  341CHL    CL2 1830   0.931   3.592   2.383  0.0946 -0.4752 -0.3926
  341CHL      H 1831   0.847   3.388   2.290  2.6635  0.6576  0.2699
  342CHL     CL 1832   0.983   0.206   0.330 -0.2842  0.1233 -0.1084
  342CHL      C 1833   0.823   0.217   0.247 -0.1734 -0.2927  0.6904
  342CHL    CL1 1834   0.690   0.174   0.352  0.1586  0.2577 -0.1661
  342CHL    CL2 1835   0.796   0.375   0.175 -0.3385 -0.0155 -0.2172
  342CHL      H 1836   0.821   0.142   0.166 -0.3966 -1.5396  1.8128
  343CHL     CL 1837   0.825   1.558   2.592 -0.1251  0.0660  0.0725
  343CHL      C 1838   0.916   1.507   2.741 -0.6473 -0.8130 -0.2860
  343CHL    CL1 1839   1.009   1.644   2.811 -0.3320 -0.1615  0.0760
  343CHL    CL2 1840   0.803   1.441   2.865 -0.0454 -0.2462 -0.0511
  343CHL      H 1841   0.985   1.427   2.710  1.2487  1.4641 -2.3108
  344CHL     CL 1842   2.174   1.863   1.367  0.0041 -0.1500 -0.1309
  344CHL      C 1843   2.199   1.950   1.524 -0.4313  0.0346 -0.0800
  344CHL    CL1 1844   2.042   1.967   1.617  0.1028 -0.4851  0.4508
  344CHL    CL2 1845   2.326   1.868   1.620 -0.1682 -0.0964  0.2803
  344CHL      H 1846   2.224   2.054   1.503 -1.3735  0.0491 -1.3101
  345CHL     CL 1847   3.531   2.451   0.256  0.1736  0.0907 -0.5405
  345CHL      C 1848   3.612   2.603   0.272  0.8256 -0.2586  0.3758
  345CHL    CL1 1849   3.691   2.652   0.116  0.2885  0.0809 -0.0685
  345CHL    CL2 1850   3.500   2.731   0.327 -0.3185  0.1028  0.0898
  345CHL      H 1851   3.688   2.578   0.347  1.1738 -0.3043  0.0126
  346CHL     CL 1852   1.299   2.576   2.630  0.6689  0.0277 -0.0001
  346CHL      C 1853   1.438   2.463   2.671 -0.1140  0.3847 -1.0532
  346CHL    CL1 1854   1.578   2.518   2.585  0.1196  0.0366 -0.2304
  346CHL    CL2 1855   1.465   2.466   2.846 -0.1742  0.1397  0.1165
  346CHL      H 1856   1.415   2.360   2.642 -0.0905  0.1143 -0.1477
  347CHL     CL 1857   3.205   0.669   1.492 -0.0903  0.5136  0.1604
  347CHL      C 1858   3.175   0.790   1.365  0.2855 -0.1959 -0.5427
  347CHL    CL1 1859   3.013   0.790   1.312 -0.0266 -0.1485 -0.1736
  347CHL    CL2 1860   3.223   0.958   1.411  0.0968 -0.0171 -0.1564
  347CHL      H 1861   3.237   0.762   1.279  0.3422 -2.2946  0.1247
  348CHL     CL 1862   0.190   2.322   1.433 -0.3253  0.0372 -0.2049
  348CHL      C 1863   0.081   2.440   1.365 -0.4774  0.5019 -0.3623
  348CHL    CL1 1864  -0.015   2.536   1.491  0.1192 -0.1072 -0.0593
  348CHL    CL2 1865   0.180   2.551   1.268  0.1354  0.0482 -0.1677
  348CHL      H 1866   0.008   2.391   1.299 -1.5710 -0.0397  1.1689
  349CHL     CL 1867   1.865   2.707   1.962  0.4810  0.0881  0.1111
  349CHL      C 1868   1.688   2.656   1.992 -0.1949 -0.0808 -0.1131
  349CHL    CL1 1869   1.659   2.515   1.887 -0.0183 -0.3481  0.0007
  349CHL    CL2 1870   1.659   2.637   2.174  0.1810 -0.3324  0.1652
  349CHL      H 1871   1.623   2.741   1.968 -0.8652 -0.9279 -1.3919
  350CHL     CL 1872   3.052   2.187   2.590  0.5108  0.2360 -0.0841
  350CHL      C 1873   3.028   2.366   2.579 -0.6186  0.7489 -0.1601
  350CHL    CL1 1874   2.853   2.398   2.574 -0.1722  0.1121  0.1952
  350CHL    CL2 1875   3.106   2.450   2.723  0.1959 -0.4095 -0.0066
  350CHL      H 1876   3.077   2.392   2.485  1.4700 -2.2101 -0.0054
  351CHL     CL 1877   2.479   1.342   3.693  0.0081  0.0991  0.1630
  351CHL      C 1878   2.584   1.464   3.760 -0.1087 -0.1226  1.2434
  351CHL    CL1 1879   2.546   1.618   3.679 -0.2831 -0.0037  0.1614
  351CHL    CL2 1880   2.580   1.465   3.940 -0.2653 -0.1099 -0.2784
  351CHL      H 1881   2.686   1.441   3.728  0.5200  0.0747  3.0205
  352CHL     CL 1882   3.697   1.609   3.724 -0.3872 -0.4415 -0.4412
  352CHL      C 1883   3.749   1.614   3.553 -0.1411  0.1050  0.7150
  352CHL    CL1 1884   3.902   1.517   3.554  0.0878  0.1678  0.1918
  352CHL    CL2 1885   3.609   1.546   3.460  0.2268  0.0281  0.1092
  352CHL      H 1886   3.773   1.718   3.529  1.6699 -0.9799 -2.7843
  353CHL     CL 1887   3.306   3.106   2.264 -0.2549  0.3966 -0.0450
  353CHL      C 1888   3.161   3.194   2.342 -0.3385  0.2456 -0.3561
  353CHL    CL1 1889   3.066   3.072   2.420 -0.2847  0.0171  0.0261
  353CHL    CL2 1890   3.225   3.313   2.470 -0.0820  0.3025  0.1110
  353CHL      H 1891   3.101   3.238   2.262 -0.6344 -1.3180 -1.0324
  354CHL     CL 1892   0.491   1.625   2.824 -0.0850 -0.0439 -0.0551
  354CHL      C 1893   0.602   1.765   2.816  0.9364 -0.0519 -0.1030
  354CHL    CL1 1894   0.511   1.905   2.752  0.1255  0.0155 -0.3102
  354CHL    CL2 1895   0.680   1.815   2.966 -0.4561 -0.2533 -0.4813
  354CHL      H 1896   0.681   1.734   2.747  1.4131 -0.6459  0.6902
  355CHL     CL 1897   2.764   0.522   0.978  0.1084  0.1761 -0.4364
  355CHL      C 1898   2.820   0.694   1.007 -0.4421  0.1460 -0.0950
  355CHL    CL1 1899   2.905   0.740   0.861 -0.3484  0.3035 -0.0275
  355CHL    CL2 1900   2.682   0.803   1.060  0.0933  0.3181  0.1417
  355CHL      H 1901   2.897   0.709   1.083  0.9696  1.2806 -1.6583
  356CHL     CL 1902   2.607   0.819   2.021  0.2557 -0.3919 -0.4049
  356CHL      C 1903   2.603   0.992   2.076 -0.4001  0.1143  1.1604
  356CHL    CL1 1904   2.457   1.030   2.170  0.0165  0.2223 -0.0422
  356CHL    CL2 1905   2.738   1.036   2.182 -0.1360  0.5082  0.0415
  356CHL      H 1906   2.620   1.058   1.991  0.7312  1.8095  2.6480
  357CHL     CL 1907   3.074   2.920   1.311  0.2451 -0.1108 -0.2166
  357CHL      C 1908   3.189   2.818   1.224 -0.3782  0.2898  0.4006
  357CHL    CL1 1909   3.235   2.683   1.342 -0.1587 -0.2525 -0.3004
  357CHL    CL2 1910   3.108   2.754   1.075 -0.0580  0.2369 -0.1065
  357CHL      H 1911   3.278   2.874   1.193  0.0529 -1.8811 -2.6644
  358CHL     CL 1912   1.390   1.365   0.980 -0.3568 -0.4575  0.2346
  358CHL      C 1913   1.252   1.379   1.103  0.3136 -0.0193 -0.7900
  358CHL    CL1 1914   1.178   1.215   1.140  0.2048 -0.1527  0.1431
  358CHL    CL2 1915   1.317   1.445   1.252  0.4728 -0.1405  0.0852
  358CHL      H 1916   1.176   1.444   1.059  0.6425 -0.2166 -1.6714
  359CHL     CL 1917   2.221   1.119   3.545 -0.1947 -0.3026 -0.1588
  359CHL      C 1918   2.067   1.213   3.507  0.3417  0.1983  0.2994
  359CHL    CL1 1919   2.005   1.136   3.354 -0.0347  0.3406 -0.2784
  359CHL    CL2 1920   1.958   1.211   3.651 -0.0848  0.3144 -0.4987
  359CHL      H 1921   2.090   1.318   3.488 -2.2296  0.4074 -2.4742
  360CHL     CL 1922   1.294   2.644   1.460 -0.2371  0.1896  0.2474
  360CHL      C 1923   1.306   2.759   1.606  0.5190  0.8333 -0.0477
  360CHL    CL1 1924   1.458   2.710   1.689 -0.2360 -0.1632  0.2832
  360CHL    CL2 1925   1.304   2.932   1.558  0.3289  0.2973  0.0019
  360CHL      H 1926   1.216   2.740   1.665  1.0919 -0.5437  0.4189
  361CHL     CL 1927   1.857   1.095   2.800 -0.1364  0.2233  0.1086
  361CHL      C 1928   1.772   1.056   2.948  0.6454  0.0505 -0.6376
  361CHL    CL1 1929   1.844   1.164   3.075 -0.5064 -0.0486 -0.2551
  361CHL    CL2 1930   1.595   1.078   2.917  0.1700 -0.3378 -0.5617
  361CHL      H 1931   1.795   0.954   2.982  0.8923  0.2466 -0.2112
  362CHL     CL 1932   0.786   2.455   3.594  0.1961  0.2517  0.1063
  362CHL      C 1933   0.918   2.571   3.622  0.0366 -0.0593 -0.8450
  362CHL    CL1 1934   0.895   2.650   3.783 -0.5792 -0.0218  0.4218
  362CHL    CL2 1935   1.077   2.500   3.596  0.1576  0.3919 -0.2331
  362CHL      H 1936   0.917   2.645   3.542  1.9393 -1.9880 -2.7867
  363CHL     CL 1937   1.962   0.391   0.499  0.4334  0.3910  0.2372
  363CHL      C 1938   2.136   0.326   0.495  1.0578 -0.1315  0.1012
  363CHL    CL1 1939   2.154   0.175   0.398 -0.0374 -0.1526  0.5512
  363CHL    CL2 1940   2.245   0.447   0.435 -0.3789 -0.2242  0.0506
  363CHL      H 1941   2.155   0.301   0.600 -3.0666 -3.1516  0.3531
  364CHL     CL 1942   0.798   3.681   1.178  0.0808  0.0329  0.1496
  364CHL      C 1943   0.744   3.540   1.101 -0.6539 -0.5023  0.7812
  364CHL    CL1 1944   0.665   3.587   0.948 -0.2500  0.0461  0.1761
  364CHL    CL2 1945   0.887   3.431   1.046 -0.5352  0.1034 -0.3865
  364CHL      H 1946   0.671   3.476   1.151  0.0634 -3.2010 -1.3347
  365CHL     CL 1947   0.874   1.332   0.504 -0.1761 -0.0701  0.2372
  365CHL      C 1948   0.885   1.306   0.326  0.7645 -0.3328 -0.3865
  365CHL    CL1 1949   0.927   1.137   0.287 -0.2137 -0.1075 -0.0911
  365CHL    CL2 1950   0.730   1.340   0.249 -0.1372 -0.3377  0.0989
  365CHL      H 1951   0.956   1.379   0.285  0.8992  2.5839  4.3350
  366CHL     CL 1952   3.463   0.999   1.746 -0.0910  0.0851  0.1147
  366CHL      C 1953   3.524   0.984   1.581  0.2800  0.7916 -0.5205
  366CHL    CL1 1954   3.677   1.069   1.559 -0.4055  0.1782 -0.5493
  366CHL    CL2 1955   3.549   0.811   1.562  0.0309  0.1733 -0.1740
  366CHL      H 1956   3.445   1.016   1.512 -1.2179 -2.2313 -0.4066
  367CHL     CL 1957   0.634   2.493   1.019  0.1376  0.5006  0.5458
  367CHL      C 1958   0.702   2.498   0.853 -0.2013  0.0082 -0.5384
  367CHL    CL1 1959   0.646   2.356   0.750 -0.5271  0.0332  0.2746
  367CHL    CL2 1960   0.662   2.669   0.785 -0.3690  0.0796 -0.0361
  367CHL      H 1961   0.811   2.500   0.856 -0.2343  1.2995  0.0579
  368CHL     CL 1962   3.352   2.082   3.248 -0.1948 -0.6258  0.1258
  368CHL      C 1963   3.323   1.922   3.185  0.3710  0.3712  0.1451
  368CHL    CL1 1964   3.403   1.917   3.028  0.1524 -0.3796  0.4374
  368CHL    CL2 1965   3.384   1.804   3.294 -0.1980  0.0171 -0.4271
  368CHL      H 1966   3.215   1.907   3.174  0.3085  1.6345 -1.2835
  369CHL     CL 1967   3.784   1.176   3.783  0.3984 -0.0082 -0.0609
  369CHL      C 1968   3.894   1.306   3.845 -0.3437  0.6087  0.0350
  369CHL    CL1 1969   3.859   1.328   4.024 -0.2248 -0.1217 -0.2328
  369CHL    CL2 1970   4.073   1.271   3.832 -0.0275  0.3286  0.1313
  369CHL      H 1971   3.879   1.402   3.794  1.0718 -0.2058 -2.0281
  370CHL     CL 1972   0.315   1.287   2.925  0.3222  0.0899 -0.2474
  370CHL      C 1973   0.240   1.261   3.078  0.3867 -0.5448 -0.3497
  370CHL    CL1 1974   0.269   1.091   3.130 -0.5628 -0.5248 -0.0073
  370CHL    CL2 1975   0.298   1.381   3.201 -0.5666 -0.1264 -0.1094
  370CHL      H 1976   0.132   1.269   3.062  0.3850  4.6953  0.7468
  371CHL     CL 1977   3.478   3.338   1.518  0.0613 -0.2118  0.2527
  371CHL      C 1978   3.377   3.323   1.371 -0.1508  0.2579 -0.0505
  371CHL    CL1 1979   3.468   3.208   1.268 -0.1740  0.1405 -0.1086
  371CHL    CL2 1980   3.208   3.265   1.405 -0.4997 -0.2231 -0.0103
  371CHL      H 1981   3.379   3.420   1.320 -1.1031 -0.7815 -2.1624
  372CHL     CL 1982   3.372   2.542   2.501 -0.0305  0.4391 -0.2813
  372CHL      C 1983   3.305   2.686   2.412 -0.4192 -0.0600 -0.2114
  372CHL    CL1 1984   3.149   2.641   2.340 -0.1474  0.3550  0.3050
  372CHL    CL2 1985   3.270   2.819   2.531  0.0450  0.0058  0.0098
  372CHL      H 1986   3.379   2.726   2.342 -1.4829  1.2432 -0.6492
  373CHL     CL 1987   1.487   2.966   2.662  0.1163 -0.3177 -0.1247
  373CHL      C 1988   1.351   2.934   2.538  1.0778  0.0607 -0.0635
  373CHL    CL1 1989   1.233   3.073   2.531 -0.4903  0.3350  0.2070
  373CHL    CL2 1990   1.431   2.902   2.369  0.2489  0.0947  0.2553
  373CHL      H 1991   1.294   2.849   2.574  0.7568  0.7611  1.1452
  374CHL     CL 1992   2.841   0.429   0.617 -0.2960  0.1877  0.1039
  374CHL      C 1993   2.726   0.380   0.480 -0.4911 -1.0112  0.0360
  374CHL    CL1 1994   2.608   0.258   0.534 -0.4240 -0.1579  0.2674
  374CHL    CL2 1995   2.646   0.540   0.426 -0.0541 -0.1168 -0.3788
  374CHL      H 1996   2.780   0.335   0.397 -2.4788  1.7413 -3.0156
  375CHL     CL 1997   1.503   2.362   0.646 -0.2523  0.0076  0.0550
  375CHL      C 1998   1.349   2.433   0.566  0.3606  0.1145 -0.2800
  375CHL    CL1 1999   1.349   2.368   0.401 -0.1380 -0.3250 -0.5443
  375CHL    CL2 2000   1.197   2.387   0.658 -0.2727 -0.1602  0.2134
  375CHL      H 2001   1.350   2.543   0.563 -0.0162  0.1244 -0.0856
  376CHL     CL 2002   1.824   0.905   0.502  0.0786 -0.1725 -0.1053
  376CHL      C 2003   1.733   0.748   0.523  0.6615  0.0407 -0.4342
  376CHL    CL1 2004   1.587   0.781   0.621  0.4997 -0.0725  0.0035
  376CHL    CL2 2005   1.687   0.677   0.362  0.1682 -0.0580  0.4143
  376CHL      H 2006   1.798   0.683   0.581 -1.1037  1.4214  3.4767
  377CHL     CL 2007   3.345   3.464   2.109 -0.0801 -0.3949  0.0892
  377CHL      C 2008   3.310   3.586   1.982 -0.1911  0.2885 -0.1744
  377CHL    CL1 2009   3.462   3.684   1.920 -0.2812  0.5047 -0.1065
  377CHL    CL2 2010   3.213   3.508   1.840  0.5877 -0.8251 -0.1418
  377CHL      H 2011   3.245   3.662   2.027 -1.3545 -1.4016  1.1553
  378CHL     CL 2012   0.693   0.601   1.722  0.2918 -0.4500 -0.1459
  378CHL      C 2013   0.814   0.497   1.798 -0.2569 -0.1751 -0.6234
  378CHL    CL1 2014   0.918   0.434   1.666  0.0682 -0.4976  0.1156
  378CHL    CL2 2015   0.909   0.599   1.915  0.1190  0.0582 -0.0966
  378CHL      H 2016   0.766   0.414   1.852 -0.2719  0.2593  0.0365
  379CHL     CL 2017   1.764   2.156   2.468  0.3526  0.1855  0.1736
  379CHL      C 2018   1.826   2.130   2.642  0.1820  0.7079  0.6353
  379CHL    CL1 2019   2.005   2.126   2.640 -0.0427  0.0486 -0.3623
  379CHL    CL2 2020   1.760   2.251   2.760 -0.1026  0.1353 -0.1338
  379CHL      H 2021   1.795   2.027   2.661 -0.6230  0.3695 -2.1227
  380CHL     CL 2022   2.565   1.027   2.494 -0.5972 -0.0533 -0.5199
  380CHL      C 2023   2.474   0.965   2.640  0.3459  0.0347  0.2554
  380CHL    CL1 2024   2.573   0.832   2.707 -0.1746  0.0791  0.3197
  380CHL    CL2 2025   2.449   1.103   2.761 -0.0762  0.0631 -0.0388
  380CHL      H 2026   2.377   0.930   2.604  0.1505  1.0069 -0.1900
  381CHL     CL 2027   1.890   3.612   1.054 -0.0553 -0.1645 -0.1035
  381CHL      C 2028   2.054   3.612   0.984  0.6510 -0.6479 -0.0985
  381CHL    CL1 2029   2.132   3.449   1.018 -0.1333 -0.1902 -0.1214
  381CHL    CL2 2030   2.043   3.632   0.809 -0.0175  0.0421 -0.2659
  381CHL      H 2031   2.108   3.697   1.026 -1.3559  0.3893  0.5290
  382CHL     CL 2032   1.200   2.967   0.832 -0.0147  0.2295  0.0934
  382CHL      C 2033   1.164   2.818   0.935 -0.0868 -0.6769 -0.0337
  382CHL    CL1 2034   1.165   2.664   0.842 -0.3321  0.1757  0.0937
  382CHL    CL2 2035   1.282   2.819   1.072  0.2769  0.0391 -0.5163
  382CHL      H 2036   1.061   2.823   0.970  0.3241 -2.1912  1.5879
  383CHL     CL 2037   0.079   0.043   0.551  0.3651  0.3554 -0.0111
  383CHL      C 2038   0.021  -0.062   0.686  0.3110 -0.2104 -0.3891
  383CHL    CL1 2039   0.161  -0.144   0.755  0.3360 -0.1781  0.1008
  383CHL    CL2 2040  -0.058   0.046   0.808 -0.0290  0.2291 -0.1550
  383CHL      H 2041  -0.051  -0.137   0.652  0.7139 -1.4111  1.2764
  384CHL     CL 2042   3.060   1.554   2.098 -0.1399 -0.2407 -0.2619
  384CHL      C 2043   3.117   1.670   1.975 -0.4783  0.0949 -0.5539
  384CHL    CL1 2044   3.023   1.642   1.829  0.1059  0.4300  0.0637
  384CHL    CL2 2045   3.089   1.837   2.039 -0.1447  0.0546  0.6130
  384CHL      H 2046   3.223   1.650   1.955 -0.3366  0.4136 -0.1304
  385CHL     CL 2047   2.444   1.833   0.886  0.3904  0.0714 -0.0934
  385CHL      C 2048   2.556   1.828   0.739  0.4570  0.2043  0.4586
  385CHL    CL1 2049   2.688   1.933   0.753 -0.4721  0.2511 -0.1560
  385CHL    CL2 2050   2.610   1.663   0.706  0.2124 -0.1212  0.0728
  385CHL      H 2051   2.496   1.849   0.650  1.3388 -2.1263 -0.7754
  386CHL     CL 2052   0.568   2.470   3.016 -0.3353  0.0008  0.8638
  386CHL      C 2053   0.632   2.441   2.850  0.2552 -0.3011  0.7804
  386CHL    CL1 2054   0.606   2.268   2.819 -0.1462  0.1325  0.2145
  386CHL    CL2 2055   0.538   2.540   2.737  0.0454 -0.1224 -0.0636
  386CHL      H 2056   0.738   2.454   2.826  0.1588 -0.7608  0.0521
  387CHL     CL 2057   0.834   2.926   3.233  0.4011 -0.6196 -0.0132
  387CHL      C 2058   0.841   3.107   3.209 -0.4669  0.2541  0.4871
  387CHL    CL1 2059   0.991   3.145   3.117  0.3856 -0.0723 -0.2302
  387CHL    CL2 2060   0.701   3.151   3.118 -0.0882 -0.0316 -0.4345
  387CHL      H 2061   0.831   3.170   3.298 -1.4009  0.7388  0.0459
  388CHL     CL 2062   1.507   3.438   0.938  0.1262 -0.2855  0.6286
  388CHL      C 2063   1.657   3.391   0.831  0.8069  0.1203 -0.5235
  388CHL    CL1 2064   1.733   3.532   0.764  0.4554  0.0975 -0.1129
  388CHL    CL2 2065   1.778   3.312   0.933  0.1548  0.1245  0.0156
  388CHL      H 2066   1.625   3.323   0.752 -2.4370  1.0913 -0.1695
  389CHL     CL 2067   1.326   2.367   2.289 -0.0860  0.3279  0.0216
  389CHL      C 2068   1.377   2.410   2.120 -0.5079  1.0396  0.2362
  389CHL    CL1 2069   1.342   2.281   2.011  0.0763 -0.0691 -0.2045
  389CHL    CL2 2070   1.294   2.554   2.071  0.4102 -0.2926 -0.4760
  389CHL      H 2071   1.485   2.431   2.123 -0.3869  0.3954  1.0585
  390CHL     CL 2072   0.916   0.834   0.848  0.6276 -0.2501 -0.0176
  390CHL      C 2073   0.961   0.999   0.798 -0.0336 -0.0869 -0.1383
  390CHL    CL1 2074   1.138   1.018   0.780 -0.0865  0.3155  0.1307
  390CHL    CL2 2075   0.876   1.035   0.647 -0.0111 -0.3252 -0.0953
  390CHL      H 2076   0.925   1.071   0.872 -0.5081 -1.0654  0.6005
  391CHL     CL 2077   2.368   1.129   0.213 -0.4097  0.3654 -0.1109
  391CHL      C 2078   2.245   1.271   0.199 -0.9477  0.1275  0.5279
  391CHL    CL1 2079   2.073   1.225   0.221  0.1464 -0.3058 -0.0810
  391CHL    CL2 2080   2.278   1.404   0.318 -0.3920  0.0761 -0.4314
  391CHL      H 2081   2.252   1.312   0.098  0.3243 -0.0582  0.5198
  392CHL     CL 2082   3.462   2.583   0.831  0.1402 -0.1033  0.1183
  392CHL      C 2083   3.519   2.476   0.976  0.0448 -0.4568 -0.0267
  392CHL    CL1 2084   3.639   2.580   1.073 -0.1555  0.4611  0.1714
  392CHL    CL2 2085   3.366   2.435   1.080 -0.0149  0.2504  0.2918
  392CHL      H 2086   3.566   2.386   0.933 -2.1054 -1.5391 -0.2081
  393CHL     CL 2087   2.333   0.636   2.546 -0.1416  0.0433 -0.3365
  393CHL      C 2088   2.229   0.610   2.688  0.8654  0.0820  0.3134
  393CHL    CL1 2089   2.340   0.553   2.824  0.3493  0.0450  0.0041
  393CHL    CL2 2090   2.154   0.766   2.758 -0.0707 -0.0207  0.0171
  393CHL      H 2091   2.160   0.530   2.660  1.3910  0.2194 -1.4584
  394CHL     CL 2092   0.695   1.493   1.236 -0.1922  0.4090  0.1402
  394CHL      C 2093   0.696   1.333   1.310  0.3495 -0.6783 -0.4341
  394CHL    CL1 2094   0.666   1.334   1.482  0.0646 -0.2860  0.1634
  394CHL    CL2 2095   0.567   1.235   1.236 -0.1945  0.2828  0.4557
  394CHL      H 2096   0.798   1.297   1.292  0.9562  1.9096 -2.7529
  395CHL     CL 2097   1.641   3.694   1.627 -0.3191  0.1315 -0.3810
  395CHL      C 2098   1.694   3.548   1.701  0.4452 -0.2035  0.7489
  395CHL    CL1 2099   1.864   3.554   1.741 -0.2686  0.1937  0.0642
  395CHL    CL2 2100   1.596   3.499   1.848  0.1846  0.3047  0.3445
  395CHL      H 2101   1.685   3.470   1.624  1.6868  0.2596  0.1108
  396CHL     CL 2102   3.273   2.949   0.478  0.3640 -0.1547 -0.3207
  396CHL      C 2103   3.294   2.822   0.609 -0.1410  0.1392  0.1266
  396CHL    CL1 2104   3.186   2.861   0.749 -0.2700 -0.2335  0.1241
  396CHL    CL2 2105   3.235   2.663   0.539 -0.0591  0.0939  0.2380
  396CHL      H 2106   3.400   2.820   0.637  0.2229  0.5070 -1.1760
  397CHL     CL 2107   1.066   1.377   1.457 -0.1871  0.0441  0.0819
  397CHL      C 2108   1.204   1.406   1.575 -1.0471 -0.3242 -0.4133
  397CHL    CL1 2109   1.144   1.483   1.728 -0.0030  0.0805  0.0169
  397CHL    CL2 2110   1.293   1.259   1.617  0.4622 -0.0561  0.1658
  397CHL      H 2111   1.268   1.485   1.534 -1.4262  1.2579  1.8055
  398CHL     CL 2112   0.589   2.907   2.872 -0.0165  0.1747  0.0469
  398CHL      C 2113   0.420   2.907   2.935 -0.1190 -0.1230 -0.1917
  398CHL    CL1 2114   0.323   2.815   2.817 -0.0144 -0.2178  0.4227
  398CHL    CL2 2115   0.407   2.825   3.087  0.7285  0.1157  0.3466
  398CHL      H 2116   0.388   3.012   2.942 -1.0888 -0.4496  0.3461
  399CL      CL 2117   2.945   3.405   2.097 -0.1216 -0.4194 -0.1161
   3.80222   3.80222   3.80222
