nspe_10_GMX.gro created by acpype (v: 2023.10.27) on Tue Apr  8 12:39:14 2025
 235
    1  H02    N    1   0.154   0.144  -0.000
    1  H02   C1    2   0.114   0.227  -0.118
    1  H02   C2    3  -0.038   0.234  -0.130
    1  H02   C3    4   0.175   0.365  -0.107
    1  H02   C4    5   0.263   0.411  -0.206
    1  H02   C5    6   0.317   0.539  -0.198
    1  H02   C6    7   0.286   0.622  -0.091
    1  H02   C7    8   0.200   0.577   0.009
    1  H02   C8    9   0.145   0.450   0.001
    1  H02   CA   10   0.109   0.000   0.000
    1  H02    C   11   0.158  -0.072   0.125
    1  H02    O   12   0.226  -0.008   0.206
    1  H02   H1   13   0.123   0.186   0.088
    1  H02   H2   14   0.256   0.144   0.010
    1  H02   H3   15   0.155   0.175  -0.205
    1  H02   H4   16  -0.085   0.272  -0.039
    1  H02   H5   17  -0.081   0.135  -0.151
    1  H02   H6   18  -0.067   0.299  -0.213
    1  H02   H7   19   0.289   0.350  -0.292
    1  H02   H8   20   0.384   0.576  -0.276
    1  H02   H9   21   0.328   0.723  -0.085
    1  H02  H10   22   0.175   0.643   0.092
    1  H02  H11   23   0.076   0.419   0.080
    1  H02  H12   24   0.151  -0.047  -0.090
    1  H02  H13   25   0.000   0.000   0.000
    2  R02    N   26   0.120  -0.204   0.136
    2  R02   C1   27   0.039  -0.266   0.032
    2  R02   H1   28   0.082  -0.238  -0.065
    2  R02   C2   29   0.040  -0.419   0.038
    2  R02   H2   30  -0.016  -0.457   0.123
    2  R02   H3   31   0.143  -0.455   0.043
    2  R02   H4   32  -0.006  -0.458  -0.052
    2  R02   C3   33  -0.105  -0.218   0.037
    2  R02   C4   34  -0.165  -0.182   0.157
    2  R02   H5   35  -0.107  -0.184   0.249
    2  R02   C5   36  -0.297  -0.142   0.161
    2  R02   H6   37  -0.342  -0.114   0.254
    2  R02   C6   38  -0.372  -0.139   0.044
    2  R02   H7   39  -0.475  -0.108   0.047
    2  R02   C7   40  -0.313  -0.175  -0.076
    2  R02   H8   41  -0.371  -0.172  -0.167
    2  R02   C8   42  -0.181  -0.215  -0.079
    2  R02   H9   43  -0.135  -0.242  -0.173
    2  R02   CA   44   0.159  -0.284   0.250
    2  R02  H10   45   0.085  -0.360   0.272
    2  R02  H11   46   0.167  -0.215   0.335
    2  R02    C   47   0.296  -0.349   0.225
    2  R02    O   48   0.336  -0.369   0.111
    3  R02    N   49   0.367  -0.382   0.338
    3  R02   C1   50   0.498  -0.445   0.327
    3  R02   H1   51   0.555  -0.390   0.252
    3  R02   C2   52   0.579  -0.437   0.457
    3  R02   H2   53   0.539  -0.503   0.534
    3  R02   H3   54   0.581  -0.335   0.494
    3  R02   H4   55   0.681  -0.469   0.436
    3  R02   C3   56   0.487  -0.590   0.285
    3  R02   C4   57   0.378  -0.668   0.319
    3  R02   H5   58   0.296  -0.624   0.375
    3  R02   C5   59   0.371  -0.801   0.283
    3  R02   H6   60   0.285  -0.860   0.310
    3  R02   C6   61   0.475  -0.858   0.211
    3  R02   H7   62   0.470  -0.962   0.182
    3  R02   C7   63   0.585  -0.782   0.176
    3  R02   H8   64   0.666  -0.825   0.120
    3  R02   C8   65   0.591  -0.648   0.213
    3  R02   H9   66   0.676  -0.588   0.185
    3  R02   CA   67   0.313  -0.356   0.470
    3  R02  H10   68   0.349  -0.429   0.542
    3  R02  H11   69   0.204  -0.363   0.461
    3  R02    C   70   0.351  -0.214   0.515
    3  R02    O   71   0.449  -0.157   0.469
    4  R02    N   72   0.267  -0.158   0.609
    4  R02   C1   73   0.292  -0.025   0.661
    4  R02   H1   74   0.315   0.040   0.575
    4  R02   C2   75   0.171   0.037   0.731
    4  R02   H2   76   0.152  -0.011   0.827
    4  R02   H3   77   0.084   0.029   0.667
    4  R02   H4   78   0.191   0.142   0.749
    4  R02   C3   79   0.410  -0.023   0.756
    4  R02   C4   80   0.442  -0.132   0.835
    4  R02   H5   81   0.383  -0.223   0.826
    4  R02   C5   82   0.547  -0.127   0.924
    4  R02   H6   83   0.571  -0.214   0.984
    4  R02   C6   84   0.623  -0.012   0.935
    4  R02   H7   85   0.706  -0.008   1.005
    4  R02   C7   86   0.593   0.098   0.857
    4  R02   H8   87   0.652   0.188   0.865
    4  R02   C8   88   0.487   0.093   0.768
    4  R02   H9   89   0.464   0.179   0.706
    4  R02   CA   90   0.153  -0.231   0.659
    4  R02  H10   91   0.130  -0.203   0.761
    4  R02  H11   92   0.180  -0.337   0.655
    4  R02    C   93   0.031  -0.207   0.569
    4  R02    O   94   0.022  -0.106   0.501
    5  R02    N   95  -0.065  -0.305   0.573
    5  R02   C1   96  -0.048  -0.423   0.657
    5  R02   H1   97  -0.014  -0.389   0.755
    5  R02   C2   98  -0.179  -0.500   0.680
    5  R02   H2   99  -0.211  -0.552   0.590
    5  R02   H3  100  -0.256  -0.432   0.713
    5  R02   H4  101  -0.162  -0.574   0.757
    5  R02   C3  102   0.055  -0.518   0.599
    5  R02   C4  103   0.075  -0.529   0.462
    5  R02   H5  104   0.019  -0.466   0.395
    5  R02   C5  105   0.167  -0.619   0.412
    5  R02   H6  106   0.182  -0.626   0.305
    5  R02   C6  107   0.240  -0.699   0.498
    5  R02   H7  108   0.312  -0.769   0.458
    5  R02   C7  109   0.221  -0.689   0.634
    5  R02   H8  110   0.278  -0.751   0.702
    5  R02   C8  111   0.129  -0.599   0.685
    5  R02   H9  112   0.114  -0.591   0.792
    5  R02   CA  113  -0.185  -0.294   0.493
    5  R02  H10  114  -0.223  -0.392   0.464
    5  R02  H11  115  -0.158  -0.238   0.403
    5  R02    C  116  -0.294  -0.218   0.570
    5  R02    O  117  -0.293  -0.213   0.692
    6  R02    N  118  -0.389  -0.156   0.492
    6  R02   C1  119  -0.383  -0.165   0.347
    6  R02   H1  120  -0.364  -0.270   0.321
    6  R02   C2  121  -0.515  -0.128   0.279
    6  R02   H2  122  -0.535  -0.021   0.284
    6  R02   H3  123  -0.597  -0.183   0.324
    6  R02   H4  124  -0.509  -0.155   0.173
    6  R02   C3  125  -0.273  -0.079   0.289
    6  R02   C4  126  -0.233   0.039   0.351
    6  R02   H5  127  -0.279   0.069   0.444
    6  R02   C5  128  -0.135   0.118   0.295
    6  R02   H6  129  -0.105   0.210   0.345
    6  R02   C6  130  -0.074   0.081   0.177
    6  R02   H7  131   0.003   0.143   0.133
    6  R02   C7  132  -0.113  -0.037   0.114
    6  R02   H8  133  -0.066  -0.067   0.022
    6  R02   C8  134  -0.211  -0.116   0.170
    6  R02   H9  135  -0.241  -0.208   0.122
    6  R02   CA  136  -0.497  -0.081   0.552
    6  R02  H10  137  -0.529   0.000   0.487
    6  R02  H11  138  -0.457  -0.039   0.645
    6  R02    C  139  -0.615  -0.173   0.584
    6  R02    O  140  -0.632  -0.277   0.523
    7  R02    N  141  -0.699  -0.129   0.684
    7  R02   C1  142  -0.673  -0.003   0.753
    7  R02   H1  143  -0.649   0.072   0.676
    7  R02   C2  144  -0.794   0.049   0.830
    7  R02   H2  145  -0.815  -0.010   0.919
    7  R02   H3  146  -0.881   0.051   0.765
    7  R02   H4  147  -0.773   0.151   0.862
    7  R02   C3  148  -0.555  -0.015   0.848
    7  R02   C4  149  -0.526  -0.135   0.912
    7  R02   H5  150  -0.585  -0.223   0.891
    7  R02   C5  151  -0.421  -0.142   1.001
    7  R02   H6  152  -0.398  -0.236   1.050
    7  R02   C6  153  -0.344  -0.031   1.028
    7  R02   H7  154  -0.262  -0.037   1.098
    7  R02   C7  155  -0.373   0.089   0.965
    7  R02   H8  156  -0.313   0.177   0.985
    7  R02   C8  157  -0.478   0.097   0.876
    7  R02   H9  158  -0.500   0.190   0.826
    7  R02   CA  159  -0.814  -0.207   0.723
    7  R02  H10  160  -0.837  -0.192   0.828
    7  R02  H11  161  -0.788  -0.312   0.706
    7  R02    C  162  -0.935  -0.169   0.637
    7  R02    O  163  -0.943  -0.061   0.583
    8  R02    N  164  -1.033  -0.267   0.627
    8  R02   C1  165  -1.153  -0.244   0.548
    8  R02   H1  166  -1.122  -0.199   0.453
    8  R02   C2  167  -1.228  -0.372   0.514
    8  R02   H2  168  -1.278  -0.415   0.601
    8  R02   H3  169  -1.160  -0.445   0.471
    8  R02   H4  170  -1.305  -0.349   0.440
    8  R02   C3  171  -1.248  -0.148   0.618
    8  R02   C4  172  -1.255  -0.142   0.756
    8  R02   H5  173  -1.190  -0.203   0.816
    8  R02   C5  174  -1.345  -0.057   0.818
    8  R02   H6  175  -1.350  -0.053   0.926
    8  R02   C6  176  -1.429   0.023   0.742
    8  R02   H7  177  -1.499   0.089   0.790
    8  R02   C7  178  -1.422   0.017   0.604
    8  R02   H8  179  -1.487   0.079   0.544
    8  R02   C8  180  -1.332  -0.068   0.542
    8  R02   H9  181  -1.327  -0.072   0.434
    8  R02   CA  182  -1.017  -0.394   0.694
    8  R02  H10  183  -1.114  -0.435   0.721
    8  R02  H11  184  -0.959  -0.375   0.785
    8  R02    C  185  -0.941  -0.493   0.605
    8  R02    O  186  -0.940  -0.480   0.484
    9  R02    N  187  -0.876  -0.594   0.671
    9  R02   C1  188  -0.881  -0.603   0.816
    9  R02   H1  189  -0.986  -0.588   0.847
    9  R02   C2  190  -0.840  -0.741   0.870
    9  R02   H2  191  -0.733  -0.757   0.860
    9  R02   H3  192  -0.895  -0.818   0.818
    9  R02   H4  193  -0.864  -0.745   0.976
    9  R02   C3  194  -0.795  -0.497   0.882
    9  R02   C4  195  -0.680  -0.450   0.821
    9  R02   H5  196  -0.652  -0.486   0.724
    9  R02   C5  197  -0.601  -0.356   0.885
    9  R02   H6  198  -0.511  -0.319   0.836
    9  R02   C6  199  -0.636  -0.308   1.010
    9  R02   H7  200  -0.574  -0.234   1.059
    9  R02   C7  201  -0.751  -0.354   1.071
    9  R02   H8  202  -0.779  -0.317   1.169
    9  R02   C8  203  -0.830  -0.448   1.008
    9  R02   H9  204  -0.920  -0.484   1.056
    9  R02   CA  205  -0.801  -0.694   0.598
    9  R02  H10  206  -0.718  -0.731   0.658
    9  R02  H11  207  -0.763  -0.645   0.509
    9  R02    C  208  -0.892  -0.810   0.558
    9  R02    O  209  -0.994  -0.835   0.619
   10  R02    N  210  -0.850  -0.883   0.449
   10  R02   C1  211  -0.927  -0.996   0.400
   10  R02   H1  212  -1.033  -0.965   0.397
   10  R02   C2  213  -0.890  -1.038   0.258
   10  R02   H2  214  -0.793  -1.087   0.254
   10  R02   H3  215  -0.890  -0.951   0.192
   10  R02   H4  216  -0.964  -1.109   0.222
   10  R02   C3  217  -0.915  -1.116   0.492
   10  R02   C4  218  -0.799  -1.140   0.564
   10  R02   H5  219  -0.717  -1.069   0.559
   10  R02   C5  220  -0.788  -1.252   0.645
   10  R02   H6  221  -0.697  -1.269   0.701
   10  R02   C6  222  -0.892  -1.342   0.653
   10  R02   H7  223  -0.884  -1.429   0.716
   10  R02   C7  224  -1.009  -1.319   0.581
   10  R02   H8  225  -1.091  -1.389   0.587
   10  R02   C8  226  -1.019  -1.207   0.501
   10  R02   H9  227  -1.110  -1.189   0.445
   10  R02   CA  228  -0.727  -0.848   0.380
   10  R02  H10  229  -0.681  -0.937   0.336
   10  R02  H11  230  -0.660  -0.805   0.455
   10  R02    C  231  -0.755  -0.744   0.271
   10  R02    O  232  -0.865  -0.732   0.221
   11  NH2    N  233  -0.647  -0.666   0.235
   11  NH2   H1  234  -0.558  -0.684   0.283
   11  NH2   H2  235  -0.661  -0.596   0.163
   44.09759    43.03972    29.21364
