nspe_10 in water
 3226
    1H02      N    1   1.339   4.056   2.402 -0.7402  0.0202  0.1056
    1H02     C1    2   1.426   4.159   2.470 -0.1630 -0.0083 -0.0236
    1H02     C2    3   1.531   4.183   2.377  0.9489  0.0288  0.5395
    1H02     C3    4   1.352   4.278   2.532  0.2440 -0.0555 -0.0148
    1H02     C4    5   1.211   4.301   2.529  0.5822  0.2534 -0.6571
    1H02     C5    6   1.152   4.409   2.599  0.5588 -0.6640  0.3176
    1H02     C6    7   1.226   4.480   2.696 -0.1164 -0.4522  0.2211
    1H02     C7    8   1.361   4.455   2.699  0.1727 -1.0260 -0.3433
    1H02     C8    9   1.426   4.354   2.618 -0.0728  0.2059  0.0192
    1H02     CA   10   1.396   3.921   2.404 -0.1930 -0.5636  0.3887
    1H02      C   11   1.285   3.834   2.464 -0.2555  0.0518 -0.6895
    1H02      O   12   1.198   3.796   2.392  0.1097  0.2669 -0.3675
    1H02     H1   13   1.327   4.090   2.308 -0.6801  1.1635  0.4868
    1H02     H2   14   1.247   4.058   2.446  0.2577  1.9743  2.3078
    1H02     H3   15   1.504   4.113   2.532 -0.6222  0.5020  0.9699
    1H02     H4   16   1.601   4.257   2.418 -0.7713  1.4005  1.1361
    1H02     H5   17   1.492   4.204   2.277 -0.0899 -0.4595  0.8268
    1H02     H6   18   1.585   4.093   2.348 -0.5486 -0.4005 -1.1126
    1H02     H7   19   1.139   4.245   2.470 -1.8043 -1.8513  3.7491
    1H02     H8   20   1.049   4.435   2.576  0.2040 -1.3506  1.0890
    1H02     H9   21   1.187   4.555   2.764  2.8270  0.2915  1.2439
    1H02    H10   22   1.420   4.512   2.771  0.8235  0.0755 -1.7026
    1H02    H11   23   1.533   4.337   2.629 -0.0629 -0.7884 -1.3270
    1H02    H12   24   1.493   3.925   2.456  0.5394  0.5239 -0.9880
    1H02    H13   25   1.438   3.891   2.307  1.8515 -1.9189  1.6279
    2R02      N   26   1.278   3.831   2.598  0.2160 -0.0913 -0.6002
    2R02     C1   27   1.158   3.822   2.678  0.6357  1.2094 -0.2026
    2R02     H1   28   1.185   3.769   2.770  1.0014 -1.9218 -1.9592
    2R02     C2   29   1.127   3.967   2.714  0.6060 -0.6090 -0.2664
    2R02     H2   30   1.124   4.033   2.627  0.9282 -0.7872 -0.4157
    2R02     H3   31   1.207   4.014   2.774  1.2454  1.0029 -2.2557
    2R02     H4   32   1.046   3.971   2.787  2.3974  0.4103  1.7829
    2R02     C3   33   1.036   3.742   2.625 -0.1133  0.3613 -0.0053
    2R02     C4   34   1.025   3.603   2.647  0.1753 -0.5149 -0.2946
    2R02     H5   35   1.107   3.550   2.694 -0.9775 -1.0755  1.1747
    2R02     C5   36   0.908   3.534   2.597 -0.0040  0.5716  0.0556
    2R02     H6   37   0.905   3.426   2.612  1.8438  0.3660 -0.7046
    2R02     C6   38   0.796   3.605   2.550 -0.4907  0.5898 -0.3872
    2R02     H7   39   0.707   3.543   2.534  0.0303  0.3956 -2.9994
    2R02     C7   40   0.811   3.741   2.519 -0.2396 -0.2757 -0.1123
    2R02     H8   41   0.727   3.797   2.479  0.4484  0.5773 -0.3932
    2R02     C8   42   0.932   3.807   2.559 -0.6072 -0.1375  0.1197
    2R02     H9   43   0.946   3.914   2.543  0.7594 -0.1456  1.0869
    2R02     CA   44   1.393   3.860   2.684  0.1425 -0.9068 -0.2733
    2R02    H10   45   1.362   3.901   2.781  0.1116  0.0505 -0.6707
    2R02    H11   46   1.450   3.944   2.641 -0.9791  0.2640  0.4518
    2R02      C   47   1.479   3.742   2.712 -0.1755  0.4157 -0.6429
    2R02      O   48   1.433   3.634   2.712  0.7415  0.0817  0.1419
    3R02      N   49   1.614   3.763   2.739  0.5456  1.1824  0.3119
    3R02     C1   50   1.702   3.672   2.663 -0.2961 -0.1171 -0.7295
    3R02     H1   51   1.650   3.576   2.652 -1.8198  0.7830 -1.8002
    3R02     C2   52   1.719   3.732   2.520 -0.8986  0.1190  0.3496
    3R02     H2   53   1.619   3.764   2.489 -0.6998  1.3117  0.8691
    3R02     H3   54   1.731   3.658   2.440 -2.2805 -0.6224  0.8012
    3R02     H4   55   1.782   3.821   2.508 -0.5583  0.0375  1.3840
    3R02     C3   56   1.828   3.627   2.733 -0.2878 -0.8377  0.2532
    3R02     C4   57   1.813   3.522   2.827 -0.7676 -0.2023  0.6003
    3R02     H5   58   1.719   3.469   2.841 -0.8633 -0.4451 -0.7560
    3R02     C5   59   1.920   3.487   2.907 -0.2896  0.0610 -0.0033
    3R02     H6   60   1.909   3.408   2.981  1.7895  0.0864  0.4089
    3R02     C6   61   2.037   3.561   2.900 -0.4730 -0.1136 -0.1483
    3R02     H7   62   2.122   3.538   2.964  0.7083  3.2055 -0.3187
    3R02     C7   63   2.057   3.650   2.794 -0.0015 -0.4634 -0.0147
    3R02     H8   64   2.153   3.699   2.789  0.5278 -1.0590  2.6551
    3R02     C8   65   1.953   3.688   2.713  0.1854 -0.3841 -0.9176
    3R02     H9   66   1.972   3.759   2.633 -0.2840 -0.8845 -1.4930
    3R02     CA   67   1.670   3.898   2.733  0.3707 -1.2627 -0.0997
    3R02    H10   68   1.652   3.933   2.630 -1.3797 -0.4311  0.4455
    3R02    H11   69   1.779   3.892   2.729  0.7099  2.4943 -0.7873
    3R02      C   70   1.626   4.034   2.811 -0.2884  0.3586 -0.3293
    3R02      O   71   1.563   4.118   2.754  0.7702  0.2772  0.3261
    4R02      N   72   1.709   4.066   2.911 -0.0247 -0.7449  0.4100
    4R02     C1   73   1.767   3.963   3.000 -0.3722 -0.4564  0.0918
    4R02     H1   74   1.723   3.867   2.971  0.1278 -0.9505  0.9042
    4R02     C2   75   1.908   3.938   2.957  0.1545  0.0180 -0.6704
    4R02     H2   76   1.991   3.990   3.005  1.2780 -2.1170 -0.1463
    4R02     H3   77   1.920   3.956   2.850  2.0070 -1.8063 -0.8447
    4R02     H4   78   1.926   3.832   2.979 -1.2257  0.0579  0.8448
    4R02     C3   79   1.747   3.976   3.159 -0.1090 -0.5467 -0.1533
    4R02     C4   80   1.695   4.098   3.227 -0.1599 -1.2271 -0.0867
    4R02     H5   81   1.668   4.184   3.166  5.2688  0.4979 -0.6014
    4R02     C5   82   1.669   4.092   3.367  0.3427 -0.0717 -0.1542
    4R02     H6   83   1.635   4.183   3.415  1.2289  0.3211 -0.2509
    4R02     C6   84   1.699   3.975   3.436 -0.6172  0.3384 -0.9448
    4R02     H7   85   1.682   3.972   3.544  1.7185 -0.9227 -0.5184
    4R02     C7   86   1.762   3.863   3.378  1.3201  0.0172  0.3188
    4R02     H8   87   1.790   3.775   3.435 -0.7091 -0.2907  0.9194
    4R02     C8   88   1.797   3.871   3.238  0.9858 -0.1260 -0.6946
    4R02     H9   89   1.838   3.781   3.193 -0.5360  0.1921 -2.8411
    4R02     CA   90   1.793   4.194   2.912  0.4725  0.2690  0.1933
    4R02    H10   91   1.896   4.164   2.887  0.9610  0.5526  1.7542
    4R02    H11   92   1.813   4.223   3.016 -1.1030  1.7529  0.1271
    4R02      C   93   1.762   4.308   2.801 -0.1381  0.5206  0.2794
    4R02      O   94   1.698   4.407   2.834 -0.6931 -0.5031 -0.0331
    5R02      N   95   1.819   4.287   2.677  0.0293 -0.0797 -0.2598
    5R02     C1   96   1.890   4.161   2.637 -0.7717  0.5812  0.3817
    5R02     H1   97   1.866   4.076   2.703 -0.2376 -2.1253 -2.6448
    5R02     C2   98   1.856   4.112   2.495 -0.3689 -0.2274 -0.6582
    5R02     H2   99   1.900   4.166   2.410  1.8750 -0.4765  0.2835
    5R02     H3  100   1.747   4.118   2.480 -0.6837 -1.7195  0.7981
    5R02     H4  101   1.882   4.007   2.475  0.8819  0.1109 -0.8784
    5R02     C3  102   2.042   4.165   2.648  0.6145 -0.8361  0.2206
    5R02     C4  103   2.103   4.274   2.714 -0.4076 -0.1028 -0.2053
    5R02     H5  104   2.039   4.344   2.767  0.6461  0.6466  0.1159
    5R02     C5  105   2.245   4.302   2.716 -0.3829 -0.1174  0.2251
    5R02     H6  106   2.292   4.393   2.751 -0.4151  0.1381 -0.3850
    5R02     C6  107   2.329   4.212   2.658 -0.5656 -0.7291  1.0522
    5R02     H7  108   2.434   4.231   2.639 -0.6622 -1.2226 -0.0457
    5R02     C7  109   2.270   4.097   2.608  0.6777 -0.2626 -0.0583
    5R02     H8  110   2.334   4.024   2.560  0.0303 -0.8141 -0.1047
    5R02     C8  111   2.131   4.072   2.597 -0.0543 -0.3044 -0.4088
    5R02     H9  112   2.097   3.977   2.559  1.6316 -0.8844 -0.5572
    5R02     CA  113   1.831   4.378   2.549 -0.7846  0.7832  0.3782
    5R02    H10  114   1.783   4.331   2.462  2.4824 -0.4300 -0.9175
    5R02    H11  115   1.929   4.352   2.508 -0.8220  0.3758  0.5414
    5R02      C  116   1.788   4.520   2.537  0.1413  0.7903  0.1435
    5R02      O  117   1.696   4.565   2.599 -0.3457  0.6729  0.0716
    6R02      N  118   1.828   4.582   2.418  0.2097 -0.0298  0.3559
    6R02     C1  119   1.969   4.553   2.374  0.4800 -0.1267 -0.2373
    6R02     H1  120   2.016   4.522   2.468 -1.7609  0.9396  1.3252
    6R02     C2  121   1.978   4.432   2.276  0.0283  0.6582 -0.3900
    6R02     H2  122   1.912   4.346   2.293  1.6987 -0.3413  1.4155
    6R02     H3  123   2.073   4.378   2.282 -0.9714 -1.2878 -0.8389
    6R02     H4  124   1.962   4.477   2.177 -0.8559  0.5480 -0.3086
    6R02     C3  125   2.041   4.687   2.328  0.2762  0.5154  0.6024
    6R02     C4  126   2.173   4.684   2.287 -0.3148  0.0803 -0.8060
    6R02     H5  127   2.220   4.587   2.292 -1.5034 -0.4768 -0.0429
    6R02     C5  128   2.236   4.801   2.247 -0.2564 -0.3067 -0.4887
    6R02     H6  129   2.336   4.796   2.204 -0.4478 -2.3647 -0.7950
    6R02     C6  130   2.166   4.922   2.255 -0.1568  0.4551 -0.5758
    6R02     H7  131   2.214   5.011   2.216  0.4583 -0.0640 -1.0122
    6R02     C7  132   2.038   4.932   2.306  0.8508 -0.3626 -0.5629
    6R02     H8  133   1.985   5.026   2.315  0.0490 -0.8648  0.0080
    6R02     C8  134   1.976   4.811   2.340  0.1128  0.1608  0.1629
    6R02     H9  135   1.872   4.820   2.370 -0.7046  0.5327 -2.4937
    6R02     CA  136   1.736   4.562   2.300 -0.2298  0.2190 -0.2610
    6R02    H10  137   1.724   4.453   2.295  0.6108 -0.0259  1.7978
    6R02    H11  138   1.786   4.577   2.204 -1.5887 -1.1196 -1.2174
    6R02      C  139   1.605   4.646   2.297 -0.3563  0.1147 -0.4721
    6R02      O  140   1.572   4.715   2.391  0.0207  0.2022  0.1766
    7R02      N  141   1.525   4.620   2.187  0.3362 -0.9328  1.0913
    7R02     C1  142   1.383   4.598   2.210  0.0783 -0.2436  0.2798
    7R02     H1  143   1.337   4.582   2.112  0.0979 -2.5818  0.5854
    7R02     C2  144   1.379   4.452   2.264 -0.8965 -0.0939 -1.0027
    7R02     H2  145   1.399   4.368   2.196 -0.1141 -0.5939 -0.1906
    7R02     H3  146   1.290   4.409   2.312 -1.0666  0.1895 -1.0637
    7R02     H4  147   1.454   4.438   2.343 -0.8890 -0.8931 -1.1392
    7R02     C3  148   1.311   4.704   2.284  0.6746  0.5944  0.0357
    7R02     C4  149   1.256   4.816   2.216  0.6828 -0.3492 -0.5943
    7R02     H5  150   1.272   4.824   2.109  0.1797 -4.3581 -1.1083
    7R02     C5  151   1.196   4.924   2.291  0.5989  0.3694  0.2333
    7R02     H6  152   1.151   5.010   2.242  3.1994  1.3813 -0.5796
    7R02     C6  153   1.169   4.908   2.421  0.0396 -0.8986 -0.0245
    7R02     H7  154   1.106   4.984   2.466 -1.2865 -1.6071 -0.6186
    7R02     C7  155   1.222   4.798   2.494  0.5337  0.2827 -0.0749
    7R02     H8  156   1.208   4.791   2.602  0.7957 -0.8043 -0.1106
    7R02     C8  157   1.301   4.704   2.427 -0.4580  0.2483  0.4511
    7R02     H9  158   1.348   4.620   2.478  0.4043  0.3354 -0.1759
    7R02     CA  159   1.572   4.515   2.085  0.8965  0.0002 -0.2378
    7R02    H10  160   1.485   4.475   2.032  1.7854  0.7245 -2.3496
    7R02    H11  161   1.599   4.425   2.142  1.5450  0.6780  0.5531
    7R02      C  162   1.675   4.547   1.977  0.3067 -0.2164  0.4777
    7R02      O  163   1.734   4.653   1.977 -0.2172  0.2710  0.3809
    8R02      N  164   1.704   4.450   1.888  0.2135  0.1047  0.4699
    8R02     C1  165   1.593   4.406   1.803  0.4780 -0.2398  0.2493
    8R02     H1  166   1.635   4.376   1.706  0.5512 -0.4478  0.3469
    8R02     C2  167   1.518   4.277   1.854  0.2789 -0.1987 -0.2950
    8R02     H2  168   1.579   4.187   1.843 -1.0486 -1.1858  0.2492
    8R02     H3  169   1.441   4.261   1.778 -0.6771 -0.3941  0.7065
    8R02     H4  170   1.468   4.289   1.950 -0.4556  0.9494 -0.8032
    8R02     C3  171   1.498   4.521   1.762  0.6819 -0.3106  0.0522
    8R02     C4  172   1.370   4.534   1.818  0.4992  0.1694  0.3384
    8R02     H5  173   1.334   4.473   1.900  0.7940 -0.3166  0.1122
    8R02     C5  174   1.290   4.642   1.792 -0.2716  0.0201 -0.5333
    8R02     H6  175   1.203   4.651   1.856  0.2776 -1.1677  0.4124
    8R02     C6  176   1.330   4.737   1.704  0.3783 -0.1582 -0.0428
    8R02     H7  177   1.267   4.821   1.678  0.3916 -0.4352 -1.0123
    8R02     C7  178   1.448   4.728   1.639  0.3170  0.4333 -0.2405
    8R02     H8  179   1.476   4.810   1.573 -1.4036  2.1984  1.0958
    8R02     C8  180   1.535   4.620   1.666  0.1658  0.6430  0.8784
    8R02     H9  181   1.630   4.612   1.613  0.3535 -2.5354  1.4620
    8R02     CA  182   1.779   4.332   1.936 -0.0893 -0.4097  0.6528
    8R02    H10  183   1.767   4.249   1.866  0.5553  0.3012 -0.3202
    8R02    H11  184   1.736   4.284   2.025  0.7842  0.9737  1.8716
    8R02      C  185   1.931   4.354   1.959  0.0378  0.2015 -0.2346
    8R02      O  186   1.984   4.461   1.943 -1.1961 -0.3235 -0.0612
    9R02      N  187   1.995   4.236   1.993  0.2477  0.2770 -0.1296
    9R02     C1  188   2.139   4.218   1.952  0.3506  0.3977  0.0626
    9R02     H1  189   2.175   4.154   2.034  2.2341  2.5151  1.0124
    9R02     C2  190   2.143   4.142   1.813  0.1748  0.2399 -0.3304
    9R02     H2  191   2.240   4.096   1.792 -0.1801 -0.0122 -1.4626
    9R02     H3  192   2.099   4.199   1.730  0.6011 -0.2408 -0.8897
    9R02     H4  193   2.082   4.051   1.810  0.6318 -0.0815  0.1393
    9R02     C3  194   2.232   4.345   1.951 -0.0649 -0.2663 -0.0531
    9R02     C4  195   2.254   4.430   1.841  0.1022 -0.9030  0.3228
    9R02     H5  196   2.197   4.420   1.749  2.7079  1.5745 -1.7365
    9R02     C5  197   2.342   4.540   1.848  0.8396  0.0103  0.0404
    9R02     H6  198   2.343   4.596   1.755 -1.8271 -0.5458 -0.4023
    9R02     C6  199   2.414   4.562   1.969  0.1840  0.5582 -0.0140
    9R02     H7  200   2.492   4.635   1.987  0.4369  0.3814 -0.3685
    9R02     C7  201   2.379   4.480   2.082  0.3962 -0.0026 -0.2541
    9R02     H8  202   2.444   4.479   2.169  0.1153  2.3763  0.0320
    9R02     C8  203   2.295   4.372   2.071 -0.7990  1.0607  0.1289
    9R02     H9  204   2.284   4.302   2.153 -0.0697  0.7590 -0.0208
    9R02     CA  205   1.928   4.097   1.997  0.2306 -0.6003  0.9116
    9R02    H10  206   2.012   4.026   1.990  0.8212 -0.1361  2.7512
    9R02    H11  207   1.874   4.084   1.902 -0.2679  1.8293  0.8184
    9R02      C  208   1.842   4.052   2.117 -0.3844  0.1942  0.4054
    9R02      O  209   1.806   4.132   2.200  0.1368 -0.0386 -0.0777
   10R02      N  210   1.806   3.919   2.123  0.4859 -0.0992 -0.2542
   10R02     C1  211   1.893   3.802   2.089 -0.2881 -0.4406 -0.3597
   10R02     H1  212   1.993   3.845   2.101 -0.9496  0.3379  3.8539
   10R02     C2  213   1.890   3.697   2.205 -0.0988  0.1514  0.1466
   10R02     H2  214   1.794   3.645   2.217 -0.0456 -0.0346 -0.2185
   10R02     H3  215   1.915   3.744   2.301 -1.2522 -1.9893  1.5720
   10R02     H4  216   1.974   3.628   2.191  0.7002  0.6584  2.1416
   10R02     C3  217   1.881   3.737   1.953 -0.2116 -1.0195 -0.3079
   10R02     C4  218   1.992   3.748   1.861  0.3818  0.5972  0.2553
   10R02     H5  219   2.077   3.808   1.892  0.6962 -0.2325  1.0194
   10R02     C5  220   1.987   3.709   1.723 -0.2939  0.0622 -0.3564
   10R02     H6  221   2.077   3.710   1.662  1.4464  2.0398  2.0252
   10R02     C6  222   1.863   3.654   1.678 -0.1792 -0.2582  0.2621
   10R02     H7  223   1.862   3.615   1.577 -0.7587 -0.1851  0.2335
   10R02     C7  224   1.751   3.649   1.773  1.2252  0.6487  0.4317
   10R02     H8  225   1.660   3.614   1.726 -0.1879  4.2184  0.2027
   10R02     C8  226   1.756   3.694   1.904 -0.0753  0.0179  0.0899
   10R02     H9  227   1.667   3.687   1.965 -1.7954 -0.7627 -2.3924
   10R02     CA  228   1.683   3.879   2.190  0.5310  0.1956 -0.1173
   10R02    H10  229   1.692   3.896   2.298 -0.2640  0.5935 -0.1034
   10R02    H11  230   1.664   3.772   2.177 -2.1147  0.3681  1.5679
   10R02      C  231   1.562   3.946   2.115  0.9649 -0.1527  0.1743
   10R02      O  232   1.461   3.889   2.088 -0.4058  0.2839 -0.2246
   11NH2      N  233   1.564   4.075   2.091 -0.0827 -0.0647 -0.0836
   11NH2     H1  234   1.476   4.127   2.087  0.4265  0.8050 -0.2798
   11NH2     H2  235   1.645   4.116   2.136 -1.1218 -0.0398  1.9069
   12CHL     CL  236   3.545   1.862   2.574  0.1942 -0.4981 -0.0002
   12CHL      C  237   3.470   1.981   2.688 -0.0237  0.0456  0.0086
   12CHL    CL1  238   3.583   2.099   2.757  0.3828 -0.5086 -0.3387
   12CHL    CL2  239   3.335   2.056   2.590 -0.2838 -0.2325 -0.3947
   12CHL      H  240   3.429   1.911   2.762  2.4082 -0.7334  0.7351
   13CHL     CL  241   0.058   3.449   3.838 -0.1045 -0.0391 -0.0416
   13CHL      C  242   0.040   3.563   3.694  0.2161  0.0187  0.3983
   13CHL    CL1  243   0.072   3.472   3.545 -0.2053 -0.2135  0.2639
   13CHL    CL2  244  -0.122   3.646   3.687  0.2822  0.4035  0.2579
   13CHL      H  245   0.106   3.650   3.704  1.0024 -0.5827  0.5485
   14CHL     CL  246   3.481   3.078   0.419 -0.4277  0.5273 -0.2218
   14CHL      C  247   3.605   2.950   0.374  0.4248  0.4868  0.3224
   14CHL    CL1  248   3.720   2.924   0.512  0.0825 -0.0113 -0.0723
   14CHL    CL2  249   3.512   2.800   0.341  0.0015  0.1476 -0.1811
   14CHL      H  250   3.663   2.973   0.283  0.4691  0.4929  0.3518
   15CHL     CL  251   1.777   2.465   0.752  0.0684  0.1345  0.2610
   15CHL      C  252   1.632   2.489   0.859  0.1588 -0.4269 -0.4149
   15CHL    CL1  253   1.602   2.334   0.936 -0.0322 -0.3197 -0.5621
   15CHL    CL2  254   1.682   2.600   0.991  0.0671 -0.2081  0.3184
   15CHL      H  255   1.536   2.522   0.816 -0.6848 -1.5479  0.5541
   16CHL     CL  256   0.150   1.552   0.076 -0.1032  0.1760 -0.0328
   16CHL      C  257   0.042   1.457   0.170  0.4127  0.3862  0.0054
   16CHL    CL1  258   0.065   1.287   0.120 -0.0178 -0.1925  0.1967
   16CHL    CL2  259   0.077   1.480   0.347  0.1201  0.0898  0.0896
   16CHL      H  260  -0.062   1.488   0.152 -0.5566 -0.7044  2.9812
   17CHL     CL  261   2.153   4.389   1.478 -0.0309  0.0736  0.5281
   17CHL      C  262   1.997   4.435   1.427 -0.5493  0.4637  0.1310
   17CHL    CL1  263   1.924   4.312   1.307 -0.3051  0.2526 -0.0761
   17CHL    CL2  264   1.900   4.460   1.578 -0.0549 -0.1855 -0.0818
   17CHL      H  265   2.003   4.524   1.364  0.4973  0.9617  0.8941
   18CHL     CL  266   0.720   2.050   3.015  0.2720 -0.6173 -0.0813
   18CHL      C  267   0.791   2.191   2.911 -0.5328 -0.5820 -0.1915
   18CHL    CL1  268   0.927   2.126   2.814 -0.1488  0.0753 -0.1520
   18CHL    CL2  269   0.649   2.251   2.808 -0.1636  0.2195  0.5236
   18CHL      H  270   0.843   2.263   2.976 -1.3637 -0.9637  0.9264
   19CHL     CL  271   3.768   1.098   1.519  0.2474 -0.1637 -0.1931
   19CHL      C  272   3.820   1.088   1.348 -0.2127  0.1460 -0.2061
   19CHL    CL1  273   3.914   0.944   1.322 -0.0517  0.0116  0.3440
   19CHL    CL2  274   3.678   1.084   1.243  0.2921 -0.0309  0.1508
   19CHL      H  275   3.885   1.174   1.327 -1.4854  1.2168  0.1291
   20CHL     CL  276   2.261   3.447   1.537  0.1608  0.0994 -0.2233
   20CHL      C  277   2.281   3.427   1.715 -0.0189  0.5453  0.5740
   20CHL    CL1  278   2.395   3.292   1.740 -0.1672 -0.3090 -0.0517
   20CHL    CL2  279   2.346   3.586   1.790  0.0347  0.1945  0.2018
   20CHL      H  280   2.182   3.407   1.757 -0.2274  0.4629  0.0490
   21CHL     CL  281   1.572   3.229   2.772  0.3192 -0.2088  0.3222
   21CHL      C  282   1.459   3.092   2.819 -0.0343 -0.5618  0.7341
   21CHL    CL1  283   1.486   3.038   2.978  0.0808  0.1989 -0.0071
   21CHL    CL2  284   1.293   3.142   2.796  0.1963 -0.0104 -0.2521
   21CHL      H  285   1.472   3.015   2.743 -3.0674  1.1067 -1.6733
   22CHL     CL  286   2.190   4.011   2.289 -0.2126 -0.2020  0.0078
   22CHL      C  287   2.300   3.869   2.267 -0.0133 -1.2155  0.1558
   22CHL    CL1  288   2.254   3.748   2.393  0.0772  0.0560 -0.0962
   22CHL    CL2  289   2.265   3.791   2.103 -0.0548  0.3132 -0.3507
   22CHL      H  290   2.402   3.905   2.282 -0.3296 -0.9388  1.8418
   23CHL     CL  291   0.008   0.087   3.856  0.1645  0.2346  0.2526
   23CHL      C  292   0.110  -0.032   3.755  0.1020  0.0523  0.4394
   23CHL    CL1  293   0.171   0.056   3.599  0.1988  0.5411 -0.1318
   23CHL    CL2  294   0.249  -0.113   3.845 -0.4114 -0.0168 -0.2822
   23CHL      H  295   0.039  -0.113   3.732 -0.1120  0.1563  0.7150
   24CHL     CL  296   1.747   1.636   4.386  0.0666 -0.1475  0.1403
   24CHL      C  297   1.585   1.561   4.419 -0.4834  0.1612 -0.4504
   24CHL    CL1  298   1.603   1.379   4.432 -0.1298  0.2538  0.4359
   24CHL    CL2  299   1.515   1.630   4.571  0.2296  0.2596  0.1146
   24CHL      H  300   1.511   1.588   4.343 -0.8625  0.4851  0.0213
   25CHL     CL  301   3.303   3.382   3.018 -0.0019 -0.4337 -0.3040
   25CHL      C  302   3.166   3.500   3.060 -0.2706  0.3462 -0.8240
   25CHL    CL1  303   3.201   3.662   2.969 -0.0492  0.0718  0.1455
   25CHL    CL2  304   3.000   3.443   2.989  0.0251  0.1544 -0.3153
   25CHL      H  305   3.158   3.513   3.168  1.8720 -0.4496 -0.5330
   26CHL     CL  306   0.314   2.825   3.551  0.0119  0.4794 -0.0049
   26CHL      C  307   0.193   2.964   3.554 -1.3400  0.7723  0.4804
   26CHL    CL1  308   0.264   3.121   3.497  0.2440  0.0552  0.0343
   26CHL    CL2  309   0.035   2.931   3.487  0.4367  0.4297  0.0503
   26CHL      H  310   0.178   2.975   3.662 -0.5689 -0.1535  0.7037
   27CHL     CL  311   1.493   3.014   0.105  0.0255  0.3504 -0.8114
   27CHL      C  312   1.332   2.976   0.037 -0.4687  0.6930 -0.0082
   27CHL    CL1  313   1.258   3.126  -0.030  0.3235  0.1039  0.1644
   27CHL    CL2  314   1.349   2.853  -0.088 -0.3117  0.1339  0.3730
   27CHL      H  315   1.255   2.936   0.105 -1.2916  0.5757 -0.9843
   28CHL     CL  316   0.246   3.830   3.388 -0.1292  0.0594  0.0789
   28CHL      C  317   0.246   3.999   3.462 -0.5163  0.0352 -0.3344
   28CHL    CL1  318   0.161   3.991   3.621  0.3166  0.0585 -0.3391
   28CHL    CL2  319   0.415   4.027   3.498  0.0527 -0.2025  0.0805
   28CHL      H  320   0.206   4.085   3.407 -1.0114  0.5576  0.8108
   29CHL     CL  321   1.312   0.603   0.249  0.0130  0.2786  0.3608
   29CHL      C  322   1.235   0.583   0.413 -0.4118 -0.2801 -0.6430
   29CHL    CL1  323   1.053   0.621   0.416 -0.1882 -0.2604 -0.0553
   29CHL    CL2  324   1.271   0.422   0.478 -0.2737 -0.1040 -0.2050
   29CHL      H  325   1.296   0.648   0.477  0.6234 -0.6350 -1.2492
   30CHL     CL  326   3.619   0.556   3.743 -0.3317 -0.2215 -0.4552
   30CHL      C  327   3.531   0.541   3.900 -0.4701 -0.0272  0.5766
   30CHL    CL1  328   3.395   0.662   3.921  0.2142  0.3224  0.0332
   30CHL    CL2  329   3.462   0.384   3.930  0.1173 -0.0483  0.3129
   30CHL      H  330   3.600   0.557   3.983 -0.0008  0.9939 -0.0034
   31CHL     CL  331   1.800   1.475   3.716 -0.2737  0.3393  0.4158
   31CHL      C  332   1.656   1.398   3.634  0.2024  0.4670  0.1956
   31CHL    CL1  333   1.619   1.239   3.711 -0.3857  0.2413 -0.5117
   31CHL    CL2  334   1.515   1.515   3.652  0.4476  0.0112 -0.0212
   31CHL      H  335   1.680   1.389   3.528 -0.1711  0.7927  0.0814
   32CHL     CL  336   0.942   2.291   0.809  0.1368  0.1281 -0.0127
   32CHL      C  337   1.081   2.263   0.918  0.4066 -0.6201 -0.2107
   32CHL    CL1  338   1.230   2.321   0.831  0.4000  0.3722 -0.2211
   32CHL    CL2  339   1.042   2.355   1.070  0.2181 -0.3121  0.3589
   32CHL      H  340   1.082   2.161   0.956  0.5894 -0.1965  0.9817
   33CHL     CL  341   2.856   1.479   3.041 -0.4040  0.2269  0.4507
   33CHL      C  342   2.718   1.521   2.931  0.5536  0.5531  0.8919
   33CHL    CL1  343   2.570   1.489   3.035 -0.0833  0.1301 -0.2134
   33CHL    CL2  344   2.723   1.690   2.902 -0.0450 -0.1326 -0.3172
   33CHL      H  345   2.710   1.455   2.844  2.2770  0.5896  0.6553
   34CHL     CL  346   1.592   1.952   3.947 -0.3377  0.3176 -0.1040
   34CHL      C  347   1.515   1.792   3.978 -0.8800 -0.0295  0.0491
   34CHL    CL1  348   1.486   1.773   4.154  0.0009 -0.3056 -0.0617
   34CHL    CL2  349   1.362   1.774   3.892  0.0650 -0.0148  0.1005
   34CHL      H  350   1.582   1.712   3.944 -0.4755 -0.0076  0.7622
   35CHL     CL  351   0.723   1.542   2.537 -0.2781  0.4929 -0.2020
   35CHL      C  352   0.729   1.376   2.472 -0.3958  0.2925 -0.5625
   35CHL    CL1  353   0.557   1.299   2.452 -0.1424 -0.1713  0.4676
   35CHL    CL2  354   0.807   1.384   2.306  0.2774 -0.3257 -0.1475
   35CHL      H  355   0.790   1.318   2.542  0.8657  1.3472 -0.7489
   36CHL     CL  356   1.095   4.258   2.963 -0.0975 -0.0538 -0.1202
   36CHL      C  357   1.219   4.304   3.077 -0.0592 -0.0953  0.0794
   36CHL    CL1  358   1.382   4.232   3.020  0.1833  0.2968 -0.2481
   36CHL    CL2  359   1.243   4.488   3.085  0.2321  0.1869 -0.1692
   36CHL      H  360   1.196   4.262   3.175  1.8247  1.5099  1.2937
   37CHL     CL  361   2.145   2.146   2.997  0.1014  0.0089  0.0900
   37CHL      C  362   2.084   2.201   3.156  1.0710 -0.4632 -1.0397
   37CHL    CL1  363   2.043   2.062   3.260  0.4153  0.2017 -0.1039
   37CHL    CL2  364   2.217   2.287   3.234 -0.2142 -0.0200  0.5290
   37CHL      H  365   2.004   2.276   3.147  2.5120  1.0407 -1.7981
   38CHL     CL  366   1.000   0.487   1.844  0.2108  0.0498  0.0117
   38CHL      C  367   0.925   0.627   1.925 -0.1435 -0.1857  0.0286
   38CHL    CL1  368   0.892   0.568   2.087 -0.0318 -0.1242  0.1946
   38CHL    CL2  369   1.042   0.761   1.935  0.2587 -0.1127 -0.3261
   38CHL      H  370   0.836   0.668   1.875 -0.5303  0.6020  1.3204
   39CHL     CL  371   0.975   0.230   1.155 -0.2135 -0.0533 -0.0502
   39CHL      C  372   0.962   0.173   1.321  0.2131 -0.5197  0.0697
   39CHL    CL1  373   1.054   0.287   1.437 -0.3812  0.5412 -0.0568
   39CHL    CL2  374   0.792   0.139   1.375 -0.5706  0.1017 -0.1118
   39CHL      H  375   1.010   0.075   1.318 -0.7572 -1.0044 -2.2239
   40CHL     CL  376   0.679   2.892   2.209  0.1039  0.3664  0.5732
   40CHL      C  377   0.632   2.897   2.038  0.0844 -0.1384  0.0745
   40CHL    CL1  378   0.603   3.052   1.980 -0.0156  0.0591 -0.4429
   40CHL    CL2  379   0.761   2.814   1.930 -0.4452 -0.1507 -0.2917
   40CHL      H  380   0.532   2.854   2.026 -0.9376  1.3873  2.4864
   41CHL     CL  381   3.322   0.490   1.718  0.1549  0.1206 -0.0410
   41CHL      C  382   3.194   0.561   1.833  0.3311 -0.3161  0.0025
   41CHL    CL1  383   3.263   0.701   1.919 -0.0192 -0.0111 -0.5139
   41CHL    CL2  384   3.045   0.606   1.740 -0.0490  0.4019  0.3842
   41CHL      H  385   3.168   0.478   1.899  0.1767 -1.3365 -1.2927
   42CHL     CL  386   1.037   4.067   1.639  0.1409 -0.0229 -0.2213
   42CHL      C  387   1.085   4.225   1.715  0.3338 -0.2510 -0.1203
   42CHL    CL1  388   1.215   4.307   1.619 -0.2830 -0.1059  0.0101
   42CHL    CL2  389   0.936   4.334   1.721 -0.1283 -0.3421  0.2339
   42CHL      H  390   1.123   4.206   1.816 -0.9354 -2.0958  0.0591
   43CHL     CL  391   0.241   1.981   1.662 -0.2619 -0.1148  0.1216
   43CHL      C  392   0.371   1.909   1.552 -0.2040  0.5906  0.3629
   43CHL    CL1  393   0.302   1.774   1.454 -0.2484 -0.0617  0.0344
   43CHL    CL2  394   0.445   2.034   1.449  0.1189  0.1002  0.1156
   43CHL      H  395   0.449   1.873   1.620  0.8616 -0.8260 -1.4976
   44CHL     CL  396   2.482   3.718   4.372 -0.3468  0.1771  0.0024
   44CHL      C  397   2.523   3.895   4.384 -0.0070  0.2792  0.1917
   44CHL    CL1  398   2.483   3.982   4.227 -0.1874  0.0908  0.0638
   44CHL    CL2  399   2.444   3.975   4.521 -0.0594 -0.3246  0.0694
   44CHL      H  400   2.630   3.909   4.403 -0.3201 -0.1339  2.5630
   45CHL     CL  401   0.725   0.243   2.579 -0.0229  0.3464  0.0280
   45CHL      C  402   0.875   0.347   2.553 -0.5129  0.6899  0.9637
   45CHL    CL1  403   0.807   0.505   2.483 -0.2382  0.1354 -0.3122
   45CHL    CL2  404   0.951   0.379   2.708 -0.1763 -0.0047  0.0357
   45CHL      H  405   0.948   0.286   2.500 -0.8262 -0.7947  2.1500
   46CHL     CL  406   3.447   2.973   3.120  0.5323 -0.1049  0.0431
   46CHL      C  407   3.408   2.990   2.945 -0.4482  0.8259  0.7259
   46CHL    CL1  408   3.523   2.888   2.848 -0.1286 -0.4557  0.3917
   46CHL    CL2  409   3.240   2.934   2.914 -0.4883 -0.5863  0.1332
   46CHL      H  410   3.421   3.092   2.907  0.9306  0.3636 -0.1591
   47CHL     CL  411   2.092   2.903   3.907  0.0220 -0.0464  0.2448
   47CHL      C  412   1.977   2.803   3.821 -0.5420 -0.5317 -0.1295
   47CHL    CL1  413   2.049   2.665   3.740  0.3562  0.0243 -0.2537
   47CHL    CL2  414   1.854   2.738   3.942  0.1914 -0.2842  0.1858
   47CHL      H  415   1.920   2.866   3.751 -1.4191  0.3258  1.2874
   48CHL     CL  416   3.078   2.873   0.691 -0.2065  0.2509  0.0386
   48CHL      C  417   3.201   2.753   0.754  0.0217  0.0290 -0.0165
   48CHL    CL1  418   3.367   2.807   0.697  0.1403 -0.0026  0.0935
   48CHL    CL2  419   3.197   2.759   0.939  0.2104 -0.3710  0.0336
   48CHL      H  420   3.182   2.648   0.727  0.4188 -0.7003  2.2999
   49CHL     CL  421   2.223   2.397   3.563  0.2335  0.0100 -0.0487
   49CHL      C  422   2.303   2.275   3.662  0.7236 -0.3598  0.0682
   49CHL    CL1  423   2.215   2.265   3.819 -0.2360 -0.3849  0.3274
   49CHL    CL2  424   2.301   2.121   3.573  0.1775 -0.4738 -0.0876
   49CHL      H  425   2.406   2.307   3.681  1.1529 -2.0297  0.7380
   50CHL     CL  426   4.158   1.045   2.246  0.1101 -0.1879  0.1686
   50CHL      C  427   4.029   1.000   2.128  0.0361 -0.2571  0.5395
   50CHL    CL1  428   4.030   1.126   1.995  0.3028  0.3747 -0.4780
   50CHL    CL2  429   4.042   0.833   2.055 -0.2980 -0.1393 -0.1630
   50CHL      H  430   3.931   1.012   2.175 -0.8391 -1.3062 -0.9459
   51CHL     CL  431   4.318   1.998   1.822  0.6448 -0.0206  0.2307
   51CHL      C  432   4.290   1.818   1.835  0.0254 -0.0402  0.1621
   51CHL    CL1  433   4.118   1.775   1.820 -0.0704  0.0681 -0.1892
   51CHL    CL2  434   4.394   1.743   1.714 -0.3155  0.1726  0.1611
   51CHL      H  435   4.341   1.783   1.925  0.7787 -1.9805 -0.9543
   52CHL     CL  436   0.517   4.366   3.671 -0.0315  0.3018 -0.1168
   52CHL      C  437   0.527   4.546   3.628  0.4177 -0.3469 -0.7854
   52CHL    CL1  438   0.687   4.617   3.667 -0.3820 -0.5063 -0.1810
   52CHL    CL2  439   0.498   4.574   3.454  0.0121 -0.0353  0.0086
   52CHL      H  440   0.455   4.593   3.695  1.2236  1.0643 -0.8786
   53CHL     CL  441   3.793   2.540   3.564 -0.4453  0.1555 -0.1635
   53CHL      C  442   3.928   2.617   3.467  0.9694  0.7600 -0.3741
   53CHL    CL1  443   3.860   2.687   3.318 -0.1330  0.0852  0.3151
   53CHL    CL2  444   4.030   2.737   3.556  0.4117 -0.0919  0.1767
   53CHL      H  445   3.991   2.538   3.424  0.4665 -1.2974  2.3852
   54CHL     CL  446   3.993   1.351   3.650  0.0609  0.0485  0.2670
   54CHL      C  447   4.069   1.336   3.811 -0.5769  0.1872 -0.2127
   54CHL    CL1  448   4.115   1.501   3.865 -0.0881  0.2442 -0.0117
   54CHL    CL2  449   3.967   1.256   3.934  0.3047 -0.2560  0.2419
   54CHL      H  450   4.151   1.266   3.791 -1.4040 -0.7271 -0.5293
   55CHL     CL  451   2.341   1.215   3.045 -0.6720  0.1136  0.0853
   55CHL      C  452   2.309   1.044   3.084 -0.2748  0.6981 -0.1340
   55CHL    CL1  453   2.150   0.998   3.010  0.1880 -0.3391  0.1206
   55CHL    CL2  454   2.436   0.929   3.019 -0.3041  0.2312  0.6716
   55CHL      H  455   2.303   1.032   3.192 -0.5854  0.0328 -0.2230
   56CHL     CL  456   1.235   0.666   1.529  0.2541  0.0249 -0.0862
   56CHL      C  457   1.375   0.681   1.417 -0.3682  0.0042  0.0280
   56CHL    CL1  458   1.350   0.561   1.296  0.0525 -0.1745  0.5078
   56CHL    CL2  459   1.370   0.852   1.354 -0.3324 -0.1972 -0.2699
   56CHL      H  460   1.474   0.653   1.455 -0.8176  0.4031  1.5459
   57CHL     CL  461   2.964   0.217   1.215  0.3859  0.2367  0.1155
   57CHL      C  462   2.864   0.127   1.334 -0.6441  0.0011 -0.0938
   57CHL    CL1  463   2.960   0.060   1.461  0.1509  0.1558  0.0522
   57CHL    CL2  464   2.753   0.244   1.416  0.4094  0.2377 -0.1267
   57CHL      H  465   2.815   0.043   1.284 -0.2875 -0.1635 -0.1686
   58CHL     CL  466   4.074   4.199   3.270 -0.4323 -0.0471 -0.3041
   58CHL      C  467   4.035   4.275   3.109  0.2989  0.3565 -0.0929
   58CHL    CL1  468   3.941   4.429   3.125 -0.0524  0.0326 -0.0299
   58CHL    CL2  469   4.176   4.308   3.009 -0.1063  0.0779  0.3039
   58CHL      H  470   3.977   4.205   3.050  2.9262 -2.1041  0.0445
   59CHL     CL  471   2.373   0.053   0.159  0.2013 -0.3800  0.1079
   59CHL      C  472   2.240   0.184   0.191 -0.3743 -0.1533 -0.3579
   59CHL    CL1  473   2.077   0.111   0.233 -0.2503  0.1851 -0.2473
   59CHL    CL2  474   2.298   0.275   0.338  0.1201 -0.0611 -0.5902
   59CHL      H  475   2.237   0.252   0.105  0.3678  0.3177 -0.0175
   60CHL     CL  476   1.661   2.510   4.293  0.1295 -0.1668 -0.0152
   60CHL      C  477   1.609   2.398   4.165  0.1463 -0.0821  1.2570
   60CHL    CL1  478   1.467   2.465   4.076  0.4573  0.1110 -0.2390
   60CHL    CL2  479   1.746   2.361   4.053  0.0383 -0.3493 -0.2752
   60CHL      H  480   1.582   2.311   4.226  2.0828 -0.2206  1.9694
   61CHL     CL  481   2.433   0.350   3.664  0.3728  0.2503 -0.1880
   61CHL      C  482   2.541   0.254   3.770  0.0731  0.0207 -0.7328
   61CHL    CL1  483   2.709   0.325   3.775 -0.5713 -0.0265 -0.1142
   61CHL    CL2  484   2.473   0.231   3.934  0.0340  0.1595 -0.1599
   61CHL      H  485   2.546   0.154   3.726  1.8313 -1.9813  3.4354
   62CHL     CL  486   2.516   4.144   2.307 -0.1295 -0.1169  0.2364
   62CHL      C  487   2.643   4.144   2.430  0.1297  0.2740  0.4220
   62CHL    CL1  488   2.661   3.983   2.500 -0.0481  0.5058  0.4022
   62CHL    CL2  489   2.795   4.200   2.347  0.0293  0.3350  0.1086
   62CHL      H  490   2.621   4.215   2.510 -1.0837  1.9892 -1.3270
   63CHL     CL  491   0.826   2.635   0.950  0.4043  0.0788 -0.3105
   63CHL      C  492   0.960   2.737   1.020 -0.3893  0.3412 -0.3003
   63CHL    CL1  493   0.972   2.896   0.926 -0.0560 -0.3432  0.2262
   63CHL    CL2  494   0.915   2.758   1.199  0.1482  0.0548  0.3905
   63CHL      H  495   1.054   2.682   1.016 -0.1299  0.2950  3.2252
   64CHL     CL  496   3.866   0.620   0.782 -0.0478 -0.4327 -0.1247
   64CHL      C  497   4.018   0.614   0.699 -0.2894 -0.6663  0.1118
   64CHL    CL1  498   4.119   0.752   0.745  0.5625  0.2431 -0.2786
   64CHL    CL2  499   4.109   0.467   0.757  0.6099  0.2429  0.4395
   64CHL      H  500   3.995   0.596   0.594 -1.9991  0.1347  0.3109
   65CHL     CL  501   3.846   2.840   2.149  0.3131 -0.2419 -0.1601
   65CHL      C  502   3.887   2.688   2.240 -0.5648 -0.7634 -0.2693
   65CHL    CL1  503   3.868   2.545   2.132 -0.5009 -0.1728  0.1282
   65CHL    CL2  504   4.055   2.700   2.305  0.4665  0.0690  0.0229
   65CHL      H  505   3.810   2.683   2.317 -2.0798  2.2853 -1.4112
   66CHL     CL  506   2.098   4.258   4.384  0.0885  0.1766 -0.0320
   66CHL      C  507   2.105   4.103   4.470 -0.0363 -0.1884  0.7474
   66CHL    CL1  508   1.942   4.067   4.526  0.3784 -0.1071  0.1137
   66CHL    CL2  509   2.150   3.971   4.348 -0.3772  0.2494 -0.0137
   66CHL      H  510   2.167   4.106   4.560 -2.1756 -0.3365  2.3110
   67CHL     CL  511   0.395   0.652   1.475  0.1369  0.0140  0.3786
   67CHL      C  512   0.310   0.594   1.323 -0.7836  0.4890 -0.6876
   67CHL    CL1  513   0.224   0.448   1.354  0.0531  0.2804  0.0499
   67CHL    CL2  514   0.210   0.725   1.246 -0.2713  0.1885 -0.1077
   67CHL      H  515   0.390   0.571   1.252 -0.6270 -1.1180 -0.0356
   68CHL     CL  516   3.067   0.950   1.218  0.5405  0.2046  0.0081
   68CHL      C  517   3.152   0.985   1.062  0.1011  0.0471 -0.1765
   68CHL    CL1  518   3.324   0.969   1.092  0.3794 -0.2190 -0.2017
   68CHL    CL2  519   3.091   0.866   0.944 -0.1318 -0.3641  0.0405
   68CHL      H  520   3.134   1.088   1.029  0.8675  0.6682  1.2305
   69CHL     CL  521   3.586   2.800   4.258 -0.1085  0.0850 -0.1129
   69CHL      C  522   3.603   2.617   4.301  1.1433  0.0782 -0.2589
   69CHL    CL1  523   3.513   2.575   4.444 -0.0854 -0.5571 -0.2808
   69CHL    CL2  524   3.515   2.539   4.156  0.3170  0.0055 -0.0899
   69CHL      H  525   3.708   2.592   4.319  1.1696  1.3389  1.6354
   70CHL     CL  526   2.217   1.490   1.433 -0.0512  0.0000 -0.1962
   70CHL      C  527   2.124   1.641   1.443  0.2396 -0.7473  0.6809
   70CHL    CL1  528   1.960   1.636   1.361  0.2822 -0.0223  0.0556
   70CHL    CL2  529   2.095   1.675   1.613  0.1828 -0.3848 -0.0560
   70CHL      H  530   2.194   1.715   1.404 -0.2821 -1.8931 -2.8565
   71CHL     CL  531   3.152   1.923   3.296 -0.2224 -0.0599 -0.0793
   71CHL      C  532   3.000   1.821   3.342  0.2638  0.0720  0.3558
   71CHL    CL1  533   3.018   1.785   3.510  0.0807 -0.2161 -0.3563
   71CHL    CL2  534   2.850   1.911   3.342 -0.2653 -0.1030  0.0326
   71CHL      H  535   2.996   1.727   3.285  0.7772  0.3384 -0.1337
   72CHL     CL  536   2.510   3.796   1.560 -0.3208  0.3915 -0.6197
   72CHL      C  537   2.618   3.653   1.499  0.1518  0.0317 -0.1516
   72CHL    CL1  538   2.582   3.623   1.322  0.0006  0.2208 -0.1335
   72CHL    CL2  539   2.793   3.698   1.516  0.2956 -0.0201  0.0854
   72CHL      H  540   2.593   3.564   1.558 -1.0145 -0.2203 -0.9887
   73CHL     CL  541   1.873   0.410   1.397  0.1044  0.0391  0.0931
   73CHL      C  542   1.884   0.580   1.431 -0.3972  0.2573  0.6827
   73CHL    CL1  543   1.919   0.687   1.290 -0.3425  0.1218  0.3905
   73CHL    CL2  544   1.727   0.624   1.511  0.1613  0.2022 -0.3625
   73CHL      H  545   1.972   0.580   1.496 -0.7068 -1.9001  1.1843
   74CHL     CL  546   1.385   3.627   0.865  0.2756  0.2320  0.1035
   74CHL      C  547   1.525   3.632   0.975  0.1971 -0.3931 -0.7290
   74CHL    CL1  548   1.490   3.736   1.115  0.4252 -0.2445  0.2066
   74CHL    CL2  549   1.574   3.464   1.023  0.0312  0.4068 -0.2170
   74CHL      H  550   1.609   3.678   0.923 -0.3872  2.7692  0.9055
   75CHL     CL  551   0.294   3.558   3.206 -0.0854  0.1727 -0.0013
   75CHL      C  552   0.251   3.388   3.231  0.1491  0.0348 -0.5271
   75CHL    CL1  553   0.073   3.373   3.207  0.1018 -0.1011  0.2422
   75CHL    CL2  554   0.349   3.269   3.121  0.3035 -0.5349  0.4655
   75CHL      H  555   0.271   3.366   3.337  0.4361  0.2738 -0.5318
   76CHL     CL  556   3.680   3.968   1.551 -0.4476 -0.0919  0.0286
   76CHL      C  557   3.646   3.803   1.622  0.0264 -0.6199  0.3940
   76CHL    CL1  558   3.525   3.813   1.760  0.3481 -0.3962 -0.0506
   76CHL    CL2  559   3.601   3.696   1.487  0.1200 -0.1674 -0.0495
   76CHL      H  560   3.739   3.759   1.658  0.1937 -1.1041 -0.5932
   77CHL     CL  561   4.028   3.794   1.534  0.1168  0.2715 -0.2198
   77CHL      C  562   4.121   3.669   1.450  0.9388  1.1094  0.1188
   77CHL    CL1  563   4.299   3.703   1.436 -0.6086  0.1121 -0.2194
   77CHL    CL2  564   4.099   3.505   1.516 -0.2878 -0.0558  0.1126
   77CHL      H  565   4.078   3.668   1.349 -0.9524 -1.7642  0.8258
   78CHL     CL  566   0.540   2.831   0.568 -0.4671  0.1435 -0.4162
   78CHL      C  567   0.616   2.857   0.724  0.2527  0.3162 -1.2796
   78CHL    CL1  568   0.612   3.034   0.761  0.1224 -0.0496  0.1567
   78CHL    CL2  569   0.528   2.757   0.843 -0.1145 -0.2148 -0.0146
   78CHL      H  570   0.720   2.822   0.729 -0.1623 -0.7572  1.5527
   79CHL     CL  571   2.389   3.417   3.794  0.0659 -0.2011 -0.2175
   79CHL      C  572   2.307   3.267   3.774  0.0861  0.4261  0.1263
   79CHL    CL1  573   2.130   3.294   3.788  0.2766  0.1069  0.1640
   79CHL    CL2  574   2.347   3.196   3.606 -0.2336 -0.2687 -0.4353
   79CHL      H  575   2.333   3.193   3.850  1.2147 -0.9230 -1.5098
   80CHL     CL  576   1.587   0.585   3.638 -0.1071 -0.3083 -0.2881
   80CHL      C  577   1.607   0.522   3.463 -0.0283  0.2945 -0.4218
   80CHL    CL1  578   1.460   0.530   3.364  0.2860 -0.3770 -0.5916
   80CHL    CL2  579   1.715   0.646   3.384  0.0847  0.0425  0.1312
   80CHL      H  580   1.650   0.422   3.458  0.3750  0.4914 -0.9681
   81CHL     CL  581   2.750   1.227   4.334 -0.0881  0.0378 -0.0184
   81CHL      C  582   2.837   1.120   4.447 -0.1724 -0.4745  0.6999
   81CHL    CL1  583   2.749   1.093   4.600 -0.0505  0.1538 -0.1583
   81CHL    CL2  584   2.853   0.952   4.370 -0.0779  0.2038  0.3710
   81CHL      H  585   2.930   1.167   4.479  0.4014 -1.0106 -0.1271
   82CHL     CL  586   3.081   1.125   2.423  0.1576  0.0479 -0.0896
   82CHL      C  587   3.201   1.035   2.329  0.0427 -0.1764 -0.2550
   82CHL    CL1  588   3.368   1.098   2.383  0.1398  0.2489 -0.3970
   82CHL    CL2  589   3.194   0.863   2.355 -0.4818  0.2122 -0.3545
   82CHL      H  590   3.187   1.056   2.222  3.0858 -2.5198 -1.2276
   83CHL     CL  591   2.503   2.514   3.906 -0.1436 -0.0505 -0.1248
   83CHL      C  592   2.606   2.422   4.005  0.7151 -0.1277  0.2469
   83CHL    CL1  593   2.687   2.304   3.897 -0.2368  0.2469  0.1612
   83CHL    CL2  594   2.718   2.536   4.097  0.4801  0.1539  0.2189
   83CHL      H  595   2.545   2.363   4.074  1.2711  1.3328  2.0345
   84CHL     CL  596   3.393   2.288   2.121  0.4729  0.5211  0.6221
   84CHL      C  597   3.376   2.173   2.263  0.1287 -0.4279 -0.3038
   84CHL    CL1  598   3.208   2.115   2.274  0.2154  0.0921 -0.1057
   84CHL    CL2  599   3.482   2.035   2.250  0.3322 -0.0742  0.1232
   84CHL      H  600   3.395   2.222   2.359  2.0053  0.7690 -1.2264
   85CHL     CL  601   0.609   1.220   0.874 -0.1028 -0.0508 -0.0378
   85CHL      C  602   0.789   1.227   0.869 -0.0816  0.0486 -0.1498
   85CHL    CL1  603   0.832   1.173   0.702 -0.0174 -0.3681  0.4439
   85CHL    CL2  604   0.835   1.396   0.898 -0.2450  0.0917  0.2553
   85CHL      H  605   0.833   1.170   0.951  0.1097  1.5472  0.8227
   86CHL     CL  606   4.000   3.231   0.716 -0.1224 -0.1246  0.2307
   86CHL      C  607   3.999   3.062   0.757  0.2512  0.0911  1.4080
   86CHL    CL1  608   4.160   3.001   0.808 -0.2306 -0.1049 -0.0595
   86CHL    CL2  609   3.870   3.022   0.873  0.0885  0.0172 -0.2233
   86CHL      H  610   3.975   3.021   0.658 -1.9211  1.6557  1.2303
   87CHL     CL  611   2.969   0.501   3.634  0.0612  0.1198 -0.0506
   87CHL      C  612   3.072   0.396   3.742  0.1562  0.1365  0.1269
   87CHL    CL1  613   3.010   0.419   3.911  0.0581  0.0394 -0.3501
   87CHL    CL2  614   3.059   0.226   3.680 -0.0219  0.1870  0.2744
   87CHL      H  615   3.176   0.430   3.729 -0.3101  0.9360 -1.7217
   88CHL     CL  616   4.217   4.277   2.131 -0.1394 -0.1913 -0.0497
   88CHL      C  617   4.291   4.196   2.277  0.0873  0.1310 -0.6592
   88CHL    CL1  618   4.160   4.116   2.378  0.0919 -0.3724 -0.1694
   88CHL    CL2  619   4.418   4.085   2.222 -0.4411 -0.4461 -0.3716
   88CHL      H  620   4.344   4.270   2.337 -0.9727  1.2525 -1.0718
   89CHL     CL  621   0.144   3.484   4.343 -0.0659 -0.0517  0.1422
   89CHL      C  622   0.060   3.557   4.202 -0.2869 -0.1015 -0.1157
   89CHL    CL1  623  -0.091   3.649   4.261  0.0454 -0.4601 -0.0678
   89CHL    CL2  624   0.179   3.669   4.115  0.3066 -0.3845 -0.2126
   89CHL      H  625   0.024   3.483   4.130 -0.1994  1.5272 -1.9292
   90CHL     CL  626   1.495   3.560   4.287 -0.0183 -0.1884  0.1165
   90CHL      C  627   1.657   3.489   4.336 -0.2672 -0.1040 -0.4684
   90CHL    CL1  628   1.729   3.600   4.459 -0.1598 -0.1679  0.2686
   90CHL    CL2  629   1.601   3.341   4.422 -0.7926  0.0151 -0.0776
   90CHL      H  630   1.717   3.480   4.245 -0.7661  1.0486 -0.9310
   91CHL     CL  631   2.321   1.214   1.274  0.3362  0.0868 -0.1943
   91CHL      C  632   2.300   1.247   1.100  0.2285  0.0072 -0.2729
   91CHL    CL1  633   2.116   1.225   1.038  0.1796 -0.4322 -0.0861
   91CHL    CL2  634   2.347   1.418   1.073 -0.4661 -0.0783 -0.0143
   91CHL      H  635   2.366   1.186   1.038 -1.3777  0.3119 -2.4259
   92CHL     CL  636   0.199   1.050   3.086  0.1030  0.2931 -0.0072
   92CHL      C  637   0.314   1.054   3.225  0.1339 -0.5843 -0.1765
   92CHL    CL1  638   0.309   1.226   3.300 -0.1706 -0.0774  0.1392
   92CHL    CL2  639   0.288   0.909   3.326  0.0719 -0.2067  0.3465
   92CHL      H  640   0.411   1.040   3.177 -0.3206 -0.6959 -1.0750
   93CHL     CL  641   0.544   0.567   3.805 -0.5405  0.0071  0.1424
   93CHL      C  642   0.437   0.635   3.932 -0.3415 -0.5139 -1.3621
   93CHL    CL1  643   0.390   0.805   3.904  0.2235 -0.2326 -0.0065
   93CHL    CL2  644   0.300   0.532   3.941  0.2961  0.0722  0.5092
   93CHL      H  645   0.489   0.632   4.028  0.9427 -1.7289 -2.0635
   94CHL     CL  646   1.943   3.723   0.350 -0.0496  0.2475 -0.1544
   94CHL      C  647   2.070   3.718   0.232 -0.1499 -0.7589 -0.6359
   94CHL    CL1  648   2.230   3.749   0.303 -0.1197  0.1066 -0.3178
   94CHL    CL2  649   2.068   3.555   0.160 -0.1698  0.2413 -0.1270
   94CHL      H  650   2.053   3.794   0.155  2.4779  1.5910  0.9521
   95CHL     CL  651   0.084   1.080   0.731  0.3356  0.0118 -0.1150
   95CHL      C  652   0.201   1.005   0.835 -0.0532 -0.5220  0.4695
   95CHL    CL1  653   0.278   1.128   0.936 -0.1201  0.1929 -0.2564
   95CHL    CL2  654   0.114   0.897   0.944 -0.5394 -0.0719 -0.2221
   95CHL      H  655   0.287   0.961   0.782  0.5124  0.2408  0.7366
   96CHL     CL  656   2.557   2.954   4.076  0.1010  0.0560 -0.0674
   96CHL      C  657   2.599   3.088   4.192  0.2002 -0.2596 -0.1408
   96CHL    CL1  658   2.571   3.264   4.127 -0.3754  0.1533  0.1536
   96CHL    CL2  659   2.519   3.066   4.353  0.2997 -0.0681 -0.2040
   96CHL      H  660   2.707   3.084   4.205  0.2595 -1.1276 -0.8876
   97CHL     CL  661   1.857   1.239   2.709 -0.2261  0.2639  0.2393
   97CHL      C  662   2.017   1.166   2.713 -0.7704 -0.2774 -0.3078
   97CHL    CL1  663   2.074   1.141   2.536  0.2479 -0.4312  0.0602
   97CHL    CL2  664   2.113   1.268   2.824 -0.0356 -0.0755  0.3280
   97CHL      H  665   2.008   1.064   2.753  0.1197 -0.1136  0.3313
   98CHL     CL  666   4.035   1.470   2.246 -0.0720 -0.0013 -0.2478
   98CHL      C  667   4.100   1.555   2.099 -0.3488  0.1492  0.2884
   98CHL    CL1  668   4.201   1.702   2.149  0.1304  0.0832  0.0195
   98CHL    CL2  669   4.189   1.424   2.010  0.4305 -0.2079 -0.1711
   98CHL      H  670   4.023   1.593   2.032 -0.2129 -0.8937 -0.4927
   99CHL     CL  671   3.232   1.560   2.369  0.0624 -0.3384 -0.1748
   99CHL      C  672   3.388   1.476   2.359 -1.0058 -0.0255  0.0700
   99CHL    CL1  673   3.501   1.566   2.249 -0.4705  0.0587 -0.2811
   99CHL    CL2  674   3.469   1.448   2.520  0.2985  0.3013 -0.3089
   99CHL      H  675   3.386   1.376   2.313  0.4407  0.3747 -0.9322
  100CHL     CL  676   3.595   2.153   4.134 -0.0657 -0.0830  0.1256
  100CHL      C  677   3.701   2.226   4.008 -0.2545 -0.3041 -0.0443
  100CHL    CL1  678   3.874   2.211   4.056  0.2419 -0.0870 -0.0539
  100CHL    CL2  679   3.677   2.156   3.848 -0.1831  0.1706  0.4661
  100CHL      H  680   3.679   2.333   4.014 -1.6929 -0.5639 -0.3927
  101CHL     CL  681   2.700   3.161   2.765 -0.2037  0.0909  0.0629
  101CHL      C  682   2.586   3.030   2.726  0.1185 -0.6861 -0.3870
  101CHL    CL1  683   2.495   2.990   2.880 -0.0033 -0.0614 -0.3350
  101CHL    CL2  684   2.473   3.084   2.597 -0.0450 -0.1919  0.1389
  101CHL      H  685   2.645   2.949   2.682  1.9370  0.3923 -0.0177
  102CHL     CL  686   2.038   0.133   3.664  0.3144  0.2083 -0.1360
  102CHL      C  687   1.902   0.255   3.654  0.8294  0.0720  0.4833
  102CHL    CL1  688   1.864   0.273   3.482 -0.2882  0.0212 -0.1293
  102CHL    CL2  689   1.752   0.208   3.744  0.0749 -0.4032 -0.0187
  102CHL      H  690   1.938   0.354   3.684  0.1095 -0.0497  1.8432
  103CHL     CL  691   0.446   1.172   3.617  0.3023  0.0129  0.2841
  103CHL      C  692   0.589   1.074   3.567 -0.4286 -0.1162  0.4704
  103CHL    CL1  693   0.636   1.108   3.405 -0.0837  0.1029 -0.3029
  103CHL    CL2  694   0.712   1.090   3.693 -0.4647  0.0244 -0.0770
  103CHL      H  695   0.557   0.970   3.554  3.2959 -1.2377 -0.7313
  104CHL     CL  696   2.063   2.726   3.302  0.0366  0.5399 -0.3956
  104CHL      C  697   2.041   2.579   3.211 -1.0442 -0.4239 -0.1902
  104CHL    CL1  698   1.879   2.575   3.151  0.2692  0.0245 -0.0528
  104CHL    CL2  699   2.153   2.580   3.068 -0.0251  0.1207 -0.1669
  104CHL      H  700   2.051   2.489   3.273 -1.9038 -0.0509  0.5090
  105CHL     CL  701   2.671   4.094   1.562 -0.1789 -0.0608  0.6118
  105CHL      C  702   2.547   4.198   1.618 -0.1321 -0.1192  0.1470
  105CHL    CL1  703   2.589   4.373   1.571 -0.1780 -0.2248  0.0044
  105CHL    CL2  704   2.396   4.148   1.515 -0.0110 -0.2720 -0.3883
  105CHL      H  705   2.543   4.191   1.727  0.3956  3.1218  0.4833
  106CHL     CL  706   3.585   1.206   2.080 -0.0684  0.0204  0.3222
  106CHL      C  707   3.520   1.067   1.985 -0.3457 -0.4096  0.0235
  106CHL    CL1  708   3.472   0.931   2.087 -0.2038 -0.3024  0.2219
  106CHL    CL2  709   3.392   1.132   1.887 -0.1909  0.1005  0.2435
  106CHL      H  710   3.601   1.029   1.921 -0.3581 -0.4318  0.0213
  107CHL     CL  711   0.866   3.806   2.139 -0.1219  0.0107  0.0885
  107CHL      C  712   0.869   3.980   2.116 -0.7300  0.0379 -0.2338
  107CHL    CL1  713   0.794   4.018   1.956  0.1979  0.2328 -0.3936
  107CHL    CL2  714   0.769   4.063   2.242 -0.1053 -0.2502  0.0186
  107CHL      H  715   0.970   4.024   2.115 -0.4918 -0.5028 -1.8815
  108CHL     CL  716   2.065   3.207   0.301 -0.0307 -0.1502  0.0670
  108CHL      C  717   1.901   3.197   0.371  0.0974  0.6730  0.1605
  108CHL    CL1  718   1.830   3.357   0.368  0.0639  0.2544  0.3248
  108CHL    CL2  719   1.793   3.096   0.278 -0.0870 -0.0125 -0.1943
  108CHL      H  720   1.907   3.152   0.470 -1.8130  0.0651  0.0381
  109CHL     CL  721   3.818   0.426   2.840 -0.3401  0.1947  0.1335
  109CHL      C  722   3.975   0.504   2.803  1.0286  0.3612  0.0765
  109CHL    CL1  723   4.090   0.506   2.943 -0.1484  0.2165 -0.2750
  109CHL    CL2  724   4.051   0.414   2.662 -0.5187  0.3416 -0.0061
  109CHL      H  725   3.942   0.603   2.770 -4.6362 -0.8753  0.8929
  110CHL     CL  726   2.410   1.534   0.692  0.1282  0.1268 -0.5278
  110CHL      C  727   2.327   1.389   0.648  1.0980  0.6725 -0.0747
  110CHL    CL1  728   2.367   1.254   0.755 -0.3218 -0.0708  0.2755
  110CHL    CL2  729   2.152   1.418   0.658 -0.1536  0.5665 -0.2070
  110CHL      H  730   2.349   1.368   0.543 -0.1007  0.1028 -0.2230
  111CHL     CL  731   2.460   1.640   1.625 -0.2601 -0.4205  0.2165
  111CHL      C  732   2.621   1.601   1.710  0.0250  1.2491  0.0296
  111CHL    CL1  733   2.683   1.741   1.824 -0.1261 -0.0082 -0.0656
  111CHL    CL2  734   2.608   1.452   1.810 -0.1634  0.2432 -0.1548
  111CHL      H  735   2.700   1.593   1.635  2.0092  2.3230  1.9100
  112CHL     CL  736   0.117   2.778   0.172 -0.2719  0.0340  0.0861
  112CHL      C  737   0.235   2.726   0.288 -0.5517  0.2011  0.2492
  112CHL    CL1  738   0.252   2.544   0.276 -0.2142 -0.1666 -0.0525
  112CHL    CL2  739   0.401   2.790   0.266 -0.0554  0.0296  0.0917
  112CHL      H  740   0.193   2.754   0.385  1.1950 -1.0371  1.4299
  113CHL     CL  741   2.547   2.464   3.174  0.0620 -0.1520  0.0464
  113CHL      C  742   2.677   2.421   3.282  0.0747  0.6592 -0.0561
  113CHL    CL1  743   2.793   2.564   3.302  0.3085  0.1845  0.2845
  113CHL    CL2  744   2.615   2.377   3.448 -0.2315  0.2763 -0.0667
  113CHL      H  745   2.728   2.339   3.230  1.0390  0.6717  0.8505
  114CHL     CL  746   1.894   2.663   1.570  0.5460  0.3416 -0.0397
  114CHL      C  747   1.964   2.671   1.412 -0.3425 -0.7348  0.3656
  114CHL    CL1  748   1.837   2.621   1.289  0.3179  0.4825  0.1919
  114CHL    CL2  749   2.013   2.844   1.379 -0.4127  0.2431  0.0134
  114CHL      H  750   2.053   2.607   1.406  0.0570 -0.4400  2.4818
  115CHL     CL  751   1.560   0.260   3.165  0.1560  0.6017 -0.0678
  115CHL      C  752   1.610   0.099   3.207  0.2982  0.5090  0.2124
  115CHL    CL1  753   1.783   0.070   3.173 -0.0891 -0.2357  0.0714
  115CHL    CL2  754   1.577   0.066   3.380  0.3732 -0.1750 -0.5300
  115CHL      H  755   1.552   0.032   3.143 -0.0733  2.3652 -1.4743
  116CHL     CL  756   0.128   3.144   1.162 -0.1229 -0.0043 -0.0605
  116CHL      C  757   0.184   3.208   0.994  0.4628 -0.4132 -0.5320
  116CHL    CL1  758   0.313   3.104   0.927  0.1407  0.2912  0.1891
  116CHL    CL2  759   0.041   3.206   0.884  0.0238  0.3820 -0.5632
  116CHL      H  760   0.208   3.313   1.010 -0.1946 -0.6416  2.7510
  117CHL     CL  761   0.942   0.609   3.688 -0.2133  0.0395 -0.0095
  117CHL      C  762   0.971   0.598   3.506 -0.5765  0.2304  0.2848
  117CHL    CL1  763   0.836   0.511   3.430  0.0602 -0.3395  0.4213
  117CHL    CL2  764   0.987   0.760   3.429 -0.0556 -0.1694 -0.7046
  117CHL      H  765   1.060   0.539   3.485  0.4397  2.1214 -0.9813
  118CHL     CL  766   1.228   1.279   1.391  0.2528 -0.0100  0.3097
  118CHL      C  767   1.210   1.269   1.573  0.5748  0.2046 -0.3702
  118CHL    CL1  768   1.144   1.422   1.636  0.1633 -0.1134 -0.3014
  118CHL    CL2  769   1.103   1.131   1.616 -0.0255  0.1520  0.0288
  118CHL      H  770   1.310   1.256   1.616  0.1312  0.1080  0.6490
  119CHL     CL  771   0.133   0.601   0.704 -0.2622  0.0171  0.0735
  119CHL      C  772   0.131   0.464   0.825  0.8792  0.6853  0.2569
  119CHL    CL1  773   0.099   0.314   0.728 -0.3072 -0.2115 -0.1387
  119CHL    CL2  774   0.281   0.458   0.914  0.0710 -0.1031 -0.0551
  119CHL      H  775   0.046   0.478   0.893  1.1508  2.2098  0.3181
  120CHL     CL  776   0.864   2.986   3.469  0.2037  0.2611  0.1015
  120CHL      C  777   0.685   3.003   3.480  0.7747 -0.8571 -0.0570
  120CHL    CL1  778   0.652   3.018   3.651  0.3836 -0.0320  0.3762
  120CHL    CL2  779   0.628   3.150   3.381 -0.4002 -0.3416 -0.0473
  120CHL      H  780   0.630   2.917   3.441 -0.1435  0.2899 -1.4437
  121CHL     CL  781   1.854   3.080   3.053 -0.1041 -0.0776 -0.1604
  121CHL      C  782   1.851   2.945   2.938 -0.3207  0.1828 -0.0983
  121CHL    CL1  783   1.787   2.979   2.772 -0.1777 -0.2399  0.0182
  121CHL    CL2  784   2.028   2.887   2.921 -0.1304 -0.4214  0.2587
  121CHL      H  785   1.802   2.867   2.996 -0.6394  1.3094  1.1895
  122CHL     CL  786   4.154   4.085   1.056 -0.1272  0.1300  0.3923
  122CHL      C  787   3.991   4.151   1.017 -0.3089 -0.1393  0.0527
  122CHL    CL1  788   3.953   4.134   0.836  0.1033  0.1527  0.5210
  122CHL    CL2  789   3.876   4.064   1.118  0.4480 -0.1423 -0.1553
  122CHL      H  790   3.998   4.258   1.039 -0.6906  0.2261 -1.5124
  123CHL     CL  791   4.246   2.322   2.373 -0.1480  0.1683  0.3290
  123CHL      C  792   4.294   2.264   2.204 -0.6860 -0.3518  0.5194
  123CHL    CL1  793   4.224   2.099   2.177  0.2590 -0.1008  0.2291
  123CHL    CL2  794   4.229   2.403   2.092  0.2326 -0.1413 -0.0237
  123CHL      H  795   4.401   2.253   2.184 -0.7355 -2.5483  1.1643
  124CHL     CL  796   4.246   3.813   0.710 -0.2853 -0.1925 -0.2990
  124CHL      C  797   4.113   3.903   0.628 -0.3003 -0.3251  0.0245
  124CHL    CL1  798   4.171   3.902   0.459 -0.2276  0.3832  0.0475
  124CHL    CL2  799   3.962   3.807   0.656  0.0049 -0.3417 -0.5735
  124CHL      H  800   4.110   4.005   0.669  0.2172 -0.0477 -0.6264
  125CHL     CL  801   2.676   1.433   3.533  0.1144  0.2113  0.1761
  125CHL      C  802   2.602   1.368   3.384 -0.1214  0.5611  0.6502
  125CHL    CL1  803   2.684   1.219   3.326 -0.1980 -0.1824  0.1471
  125CHL    CL2  804   2.431   1.328   3.414  0.1075 -0.0133  0.4262
  125CHL      H  805   2.603   1.444   3.304 -0.0348 -1.2274 -1.1228
  126CHL     CL  806   1.498   2.199   2.787  0.1800 -0.6305 -0.1188
  126CHL      C  807   1.415   2.179   2.953  0.3980  0.2685  0.2944
  126CHL    CL1  808   1.527   2.089   3.066  0.1478  0.0731  0.0888
  126CHL    CL2  809   1.401   2.339   3.027  0.0912  0.0741  0.3749
  126CHL      H  810   1.318   2.130   2.939  0.2978  1.3147 -4.0014
  127CHL     CL  811   2.265   1.560   3.937 -0.1791  0.0234  0.0474
  127CHL      C  812   2.272   1.416   3.820 -0.0542  0.1300 -0.4107
  127CHL    CL1  813   2.156   1.276   3.857 -0.0184 -0.0858  0.1047
  127CHL    CL2  814   2.234   1.472   3.657  0.0327  0.0629  0.3225
  127CHL      H  815   2.374   1.376   3.815 -1.6287 -4.3885 -0.6241
  128CHL     CL  816   1.922   0.976   3.820  0.4168 -0.0853  0.1445
  128CHL      C  817   1.862   0.843   3.916  0.1755 -0.4855  0.5171
  128CHL    CL1  818   1.905   0.687   3.836 -0.0937 -0.0198  0.5158
  128CHL    CL2  819   1.939   0.848   4.073 -0.0639 -0.1561  0.3083
  128CHL      H  820   1.755   0.861   3.936  0.5202  0.2845  1.7783
  129CHL     CL  821   4.152   3.489   0.921  0.0156  0.2692  0.5780
  129CHL      C  822   4.292   3.560   1.014  0.6634 -0.6859 -0.0699
  129CHL    CL1  823   4.227   3.708   1.104  0.0742 -0.2973 -0.1503
  129CHL    CL2  824   4.376   3.457   1.126  0.1344 -0.2439 -0.2259
  129CHL      H  825   4.359   3.604   0.939 -0.6471  0.9760 -0.3379
  130CHL     CL  826   2.988   1.861   1.277  0.2209 -0.1371  0.5042
  130CHL      C  827   2.885   1.813   1.421 -0.1875 -0.3439  0.1609
  130CHL    CL1  828   2.714   1.794   1.378  0.0117 -0.2267  0.1778
  130CHL    CL2  829   2.966   1.674   1.486 -0.1127  0.1298  0.1510
  130CHL      H  830   2.893   1.895   1.493 -0.8174 -0.0172 -0.1337
  131CHL     CL  831   2.033   0.532   3.246 -0.3983 -0.0372  0.1320
  131CHL      C  832   2.081   0.611   3.403  0.2270  0.4627 -0.6270
  131CHL    CL1  833   2.126   0.480   3.517 -0.0246 -0.3777  0.3098
  131CHL    CL2  834   2.219   0.723   3.382  0.4533  0.1101 -0.0145
  131CHL      H  835   1.991   0.665   3.435 -1.2251 -1.6314 -0.9700
  132CHL     CL  836   3.009   1.935   2.544 -0.3389 -0.0988  0.0827
  132CHL      C  837   2.955   1.801   2.439  0.1593  0.9599  0.0477
  132CHL    CL1  838   2.817   1.717   2.523  0.4729 -0.1691 -0.2656
  132CHL    CL2  839   2.907   1.845   2.269  0.0920 -0.2309 -0.1333
  132CHL      H  840   3.031   1.722   2.443 -0.4171  0.4412  0.9738
  133CHL     CL  841   1.746   0.650   0.812  0.0088 -0.1270 -0.3274
  133CHL      C  842   1.574   0.644   0.879 -0.4653  0.1203 -0.1381
  133CHL    CL1  843   1.535   0.786   0.989  0.4418 -0.0124 -0.0549
  133CHL    CL2  844   1.450   0.638   0.757 -0.0148  0.1328 -0.6902
  133CHL      H  845   1.580   0.560   0.950  0.8063  0.6932  0.4634
  134CHL     CL  846   2.248   3.153   0.708  0.1102 -0.0664  0.6252
  134CHL      C  847   2.344   3.002   0.754  0.0174  0.3230 -0.0540
  134CHL    CL1  848   2.395   3.012   0.927  0.0187  0.0534  0.0144
  134CHL    CL2  849   2.251   2.851   0.722  0.3661 -0.3132  0.1405
  134CHL      H  850   2.430   3.016   0.687 -1.4748  0.1668 -2.0717
  135CHL     CL  851   1.794   1.851   2.088  0.0520 -0.2473 -0.2922
  135CHL      C  852   1.903   1.979   2.034  0.2485 -0.0715  0.5376
  135CHL    CL1  853   1.845   2.036   1.874 -0.1574  0.1885  0.4208
  135CHL    CL2  854   1.921   2.116   2.156 -0.2487  0.0746  0.1038
  135CHL      H  855   2.001   1.935   2.017 -0.0615 -0.7393  0.4555
  136CHL     CL  856   2.718   3.902   0.909  0.1354 -0.3038  0.2763
  136CHL      C  857   2.705   3.750   0.993 -0.5931 -0.4169 -0.0701
  136CHL    CL1  858   2.672   3.621   0.878  0.0244 -0.2928  0.0392
  136CHL    CL2  859   2.871   3.722   1.060  0.3524 -0.3005 -0.3003
  136CHL      H  860   2.632   3.750   1.074 -1.4159 -1.5695 -0.7926
  137CHL     CL  861   0.698   0.162   0.955  0.0361  0.1912 -0.3373
  137CHL      C  862   0.601   0.236   1.093  0.5445 -0.5211  0.2866
  137CHL    CL1  863   0.606   0.408   1.100 -0.1037 -0.3525  0.0057
  137CHL    CL2  864   0.433   0.176   1.091  0.2146 -0.0036 -0.1841
  137CHL      H  865   0.644   0.190   1.182  2.2511  1.2000  0.4040
  138CHL     CL  866   0.267   1.847   3.297  0.0217 -0.3181 -0.1758
  138CHL      C  867   0.341   1.722   3.181  0.2429 -0.2359 -0.2867
  138CHL    CL1  868   0.241   1.705   3.036  0.3587 -0.0669  0.1924
  138CHL    CL2  869   0.508   1.784   3.132  0.4430  0.1778 -0.0643
  138CHL      H  870   0.346   1.621   3.222 -2.1509 -0.6626 -0.9009
  139CHL     CL  871   2.899   1.970   0.168 -0.3747 -0.1087 -0.3000
  139CHL      C  872   2.742   1.939   0.250  0.6923  0.9704 -0.4360
  139CHL    CL1  873   2.767   1.813   0.365 -0.1468  0.3128  0.3702
  139CHL    CL2  874   2.681   2.083   0.333 -0.0499 -0.2531 -0.2050
  139CHL      H  875   2.668   1.906   0.176  1.5714  1.2734 -1.4866
  140CHL     CL  876   1.034   2.577   1.785 -0.1453  0.1670 -0.1406
  140CHL      C  877   1.001   2.486   1.634  0.6632  0.6775 -0.6767
  140CHL    CL1  878   0.900   2.345   1.680 -0.0666 -0.4157  0.2175
  140CHL    CL2  879   0.913   2.595   1.522 -0.1868 -0.2188 -0.0555
  140CHL      H  880   1.093   2.459   1.581  1.5931  1.8703  0.2910
  141CHL     CL  881   4.041   3.825   2.132  0.1476 -0.0589  0.0950
  141CHL      C  882   4.029   3.702   2.263 -0.1254 -0.4883 -0.5188
  141CHL    CL1  883   4.119   3.561   2.231  0.0568  0.1589  0.4713
  141CHL    CL2  884   4.086   3.761   2.429  0.1166  0.2060  0.0856
  141CHL      H  885   3.925   3.670   2.273 -0.7111  0.7665 -2.0953
  142CHL     CL  886   3.840   4.036   2.577  0.1585  0.1995 -0.2047
  142CHL      C  887   3.878   4.207   2.626 -0.2762  0.2876 -0.1662
  142CHL    CL1  888   3.835   4.323   2.498  0.4751  0.3797  0.2519
  142CHL    CL2  889   3.779   4.251   2.762  0.0416 -0.2612  0.0573
  142CHL      H  890   3.982   4.224   2.655 -0.3425  0.1053  0.1877
  143CHL     CL  891   0.258   3.108   0.368 -0.0293 -0.0581 -0.1907
  143CHL      C  892   0.275   3.199   0.198  0.1141 -0.0928 -0.0160
  143CHL    CL1  893   0.442   3.272   0.177  0.1113 -0.3491 -0.1787
  143CHL    CL2  894   0.252   3.082   0.066 -0.1356 -0.2542  0.0287
  143CHL      H  895   0.193   3.271   0.185 -1.5064 -2.0593 -1.3878
  144CHL     CL  896   1.251   0.688   2.923 -0.1294  0.1458  0.5329
  144CHL      C  897   1.280   0.519   2.987  0.0445  0.1037 -0.2801
  144CHL    CL1  898   1.193   0.490   3.140  0.4538  0.0858 -0.3339
  144CHL    CL2  899   1.260   0.387   2.871  0.0431  0.2051 -0.0933
  144CHL      H  900   1.382   0.522   3.026 -0.8220 -2.6451  2.6370
  145CHL     CL  901   4.263   3.862   2.767 -0.1298  0.5776 -0.1504
  145CHL      C  902   4.089   3.838   2.801 -0.3970  0.1117  0.7870
  145CHL    CL1  903   4.051   3.669   2.866 -0.3325  0.4358  0.1406
  145CHL    CL2  904   4.038   3.957   2.914 -0.0620 -0.0807  0.4088
  145CHL      H  905   4.050   3.836   2.699  0.0748 -1.6201  0.6035
  146CHL     CL  906   2.920   0.095   2.510  0.3281  0.0915  0.1899
  146CHL      C  907   3.000   0.241   2.575 -0.2451  0.0925  0.1659
  146CHL    CL1  908   2.881   0.344   2.669 -0.3682 -0.4313  0.2333
  146CHL    CL2  909   3.144   0.207   2.668 -0.1781  0.4132  0.1871
  146CHL      H  910   3.035   0.306   2.493  1.8043 -1.3065 -0.1470
  147CHL     CL  911   2.134   0.800   2.660  0.2613  0.0020  0.1910
  147CHL      C  912   2.298   0.771   2.694 -0.6016 -0.5054 -0.5133
  147CHL    CL1  913   2.304   0.644   2.821  0.0350  0.1521  0.3121
  147CHL    CL2  914   2.390   0.724   2.546 -0.0151 -0.1734  0.2263
  147CHL      H  915   2.345   0.861   2.737 -1.1612 -0.1468 -0.6396
  148CHL     CL  916   1.911   2.096   3.920  0.0602  0.5655  0.0416
  148CHL      C  917   1.986   1.932   3.938 -0.5474 -0.8123  0.4436
  148CHL    CL1  918   1.964   1.847   3.779  0.1443 -0.0320  0.1744
  148CHL    CL2  919   2.165   1.939   3.973 -0.2480  0.0813 -0.0895
  148CHL      H  920   1.936   1.880   4.020 -2.9739 -1.2310 -1.1816
  149CHL     CL  921   2.565   3.267   3.179  0.1612 -0.1147 -0.3560
  149CHL      C  922   2.399   3.236   3.102  0.0449 -0.7142  0.2762
  149CHL    CL1  923   2.310   3.126   3.205 -0.2424  0.4215  0.3141
  149CHL    CL2  924   2.306   3.397   3.094 -0.3469  0.0089 -0.0841
  149CHL      H  925   2.422   3.203   3.000 -1.4356 -0.7578 -0.0551
  150CHL     CL  926   0.252   2.544   1.230  0.2922  0.2198 -0.3513
  150CHL      C  927   0.276   2.723   1.192 -0.0487 -0.4419  0.8880
  150CHL    CL1  928   0.212   2.820   1.332  0.1106 -0.0917  0.0261
  150CHL    CL2  929   0.450   2.764   1.177 -0.0991 -0.2853  0.2226
  150CHL      H  930   0.227   2.758   1.101  1.8104  1.1828  0.4532
  151CHL     CL  931   3.917   1.179   0.921  0.0685  0.2359 -0.0239
  151CHL      C  932   3.747   1.214   0.858  0.3216 -0.0579  0.2358
  151CHL    CL1  933   3.639   1.080   0.895  0.1524 -0.5378  0.0937
  151CHL    CL2  934   3.680   1.364   0.936 -0.5435  0.2691  0.0254
  151CHL      H  935   3.747   1.218   0.749 -1.1055  1.7461  0.2559
  152CHL     CL  936   3.931   2.003   3.157 -0.2611  0.0129 -0.2237
  152CHL      C  937   3.801   2.073   3.263  0.2306  0.8303 -0.4227
  152CHL    CL1  938   3.827   2.246   3.311 -0.1777  0.1832 -0.1562
  152CHL    CL2  939   3.643   2.059   3.165  0.6920  0.1503  0.2559
  152CHL      H  940   3.795   2.010   3.352 -2.0903 -0.8239 -1.6559
  153CHL     CL  941   0.777   0.801   4.055  0.2439  0.2702  0.1031
  153CHL      C  942   0.929   0.846   3.977  0.6759 -0.7336 -0.3739
  153CHL    CL1  943   0.949   1.024   3.977 -0.1956  0.3886 -0.0794
  153CHL    CL2  944   1.059   0.771   4.067 -0.2038  0.2637  0.0120
  153CHL      H  945   0.927   0.805   3.875  1.8917 -0.7262 -0.4190
  154CHL     CL  946   3.672   2.440   1.257 -0.0059  0.0224 -0.0566
  154CHL      C  947   3.793   2.356   1.361  0.2342 -0.3630  0.2818
  154CHL    CL1  948   3.826   2.456   1.512 -0.0101 -0.2546 -0.3211
  154CHL    CL2  949   3.740   2.204   1.419  0.3999  0.1083  0.2085
  154CHL      H  950   3.882   2.351   1.298 -1.2880  0.4243 -2.0761
  155CHL     CL  951   0.971   2.337   4.137  0.2310 -0.0406  0.2883
  155CHL      C  952   0.987   2.511   4.115 -0.1555 -0.0033 -0.5060
  155CHL    CL1  953   0.834   2.599   4.074 -0.1782 -0.0734 -0.5873
  155CHL    CL2  954   1.051   2.576   4.267 -0.1761  0.0002  0.0579
  155CHL      H  955   1.067   2.522   4.041 -0.8006 -0.4103 -1.2829
  156CHL     CL  956   2.429   0.863   2.195  0.0299  0.4551 -0.2349
  156CHL      C  957   2.294   0.971   2.168  0.6690 -0.4640  0.1359
  156CHL    CL1  958   2.161   0.932   2.284 -0.1544  0.0290 -0.2622
  156CHL    CL2  959   2.351   1.144   2.186  0.1644  0.1408  0.3350
  156CHL      H  960   2.270   0.946   2.064  1.0571  1.6287 -0.4964
  157CHL     CL  961   4.199   1.571   4.285  0.0538  0.0375  0.0554
  157CHL      C  962   4.118   1.412   4.234 -0.5242 -1.0014  1.0742
  157CHL    CL1  963   4.242   1.288   4.196 -0.0648  0.1847 -0.1680
  157CHL    CL2  964   4.011   1.351   4.366 -0.2790  0.4374  0.2268
  157CHL      H  965   4.056   1.419   4.144  0.1560  2.3029  0.7515
  158CHL     CL  966   1.906   2.167   0.073 -0.3745  0.5686 -0.1176
  158CHL      C  967   1.866   1.998   0.044 -1.0698  0.4468 -0.0629
  158CHL    CL1  968   1.791   1.964  -0.119  0.4250  0.1461 -0.3197
  158CHL    CL2  969   2.011   1.901   0.051  0.0180  0.5483 -0.2597
  158CHL      H  970   1.800   1.976   0.128 -0.7732  0.0557  0.0691
  159CHL     CL  971   2.200   2.403   1.649  0.0385 -0.3170 -0.2126
  159CHL      C  972   2.280   2.564   1.636  0.3369  0.5375  0.1178
  159CHL    CL1  973   2.318   2.590   1.460  0.4378 -0.1131  0.2278
  159CHL    CL2  974   2.181   2.684   1.713  0.0796 -0.0316 -0.4498
  159CHL      H  975   2.371   2.563   1.698  1.7222 -1.2388 -1.8047
  160CHL     CL  976   1.618   0.621   2.203  0.1204 -0.0052  0.1583
  160CHL      C  977   1.686   0.584   2.041  0.3359 -0.2907 -0.4460
  160CHL    CL1  978   1.562   0.613   1.922  0.3501 -0.3204  0.0190
  160CHL    CL2  979   1.821   0.698   2.004  0.1131 -0.2781 -0.1658
  160CHL      H  980   1.733   0.486   2.031  2.6522  0.7168 -0.0776
  161CHL     CL  981   3.706   3.805   2.858 -0.2432  0.1645 -0.0382
  161CHL      C  982   3.637   3.792   3.017  0.2329 -0.9850  0.1917
  161CHL    CL1  983   3.610   3.615   3.067  0.0590 -0.3111  0.2289
  161CHL    CL2  984   3.741   3.881   3.144 -0.4670 -0.1642 -0.6109
  161CHL      H  985   3.537   3.837   3.010  0.9371  0.5515 -0.8100
  162CHL     CL  986   1.905   3.241   0.917 -0.1977  0.0261 -0.1802
  162CHL      C  987   1.883   3.244   0.740 -0.1203  1.1235 -0.1877
  162CHL    CL1  988   1.768   3.116   0.679 -0.0298 -0.1055 -0.0531
  162CHL    CL2  989   1.823   3.410   0.710  0.0781  0.0942  0.0389
  162CHL      H  990   1.979   3.218   0.695 -0.9700 -1.7584 -0.4849
  163CHL     CL  991   2.358   1.037   1.799  0.2614  0.3487  0.2189
  163CHL      C  992   2.351   1.089   1.628  0.3778  0.0454  0.8543
  163CHL    CL1  993   2.403   1.255   1.615 -0.2661  0.1383 -0.2569
  163CHL    CL2  994   2.462   1.005   1.527 -0.2448  0.1675  0.2378
  163CHL      H  995   2.255   1.059   1.586  0.6163  0.7370 -0.2225
  164CHL     CL  996   0.349   0.291   2.078 -0.0479  0.3383 -0.0779
  164CHL      C  997   0.462   0.393   2.183  0.8611 -0.5512  0.5196
  164CHL    CL1  998   0.631   0.343   2.189 -0.2658 -0.0922  0.1016
  164CHL    CL2  999   0.455   0.561   2.136 -0.0244 -0.1780 -0.1845
  164CHL      H 1000   0.423   0.394   2.286 -2.4535 -0.0487 -0.5989
  165CHL     CL 1001   2.201   1.057   3.413  0.3338  0.3290  0.3102
  165CHL      C 1002   2.028   1.112   3.395  0.1422 -0.0138  0.2937
  165CHL    CL1 1003   1.917   0.971   3.385 -0.8223  0.0492  0.2189
  165CHL    CL2 1004   1.967   1.217   3.527 -0.0577 -0.1131 -0.3711
  165CHL      H 1005   2.008   1.160   3.299  0.1449 -0.3288  0.1328
  166CHL     CL 1006   3.231   1.369   3.996  0.0801  0.0271 -0.0498
  166CHL      C 1007   3.327   1.216   4.007  0.0370  0.1234  0.1418
  166CHL    CL1 1008   3.485   1.236   3.934  0.6045 -0.0507 -0.1509
  166CHL    CL2 1009   3.332   1.149   4.176 -0.5623  0.3424 -0.1396
  166CHL      H 1010   3.268   1.145   3.949 -2.2503  1.2412  0.9856
  167CHL     CL 1011   3.560   0.175   3.592 -0.1966 -0.7099  0.2644
  167CHL      C 1012   3.726   0.107   3.567  0.4252  0.8341  0.5169
  167CHL    CL1 1013   3.711  -0.063   3.508  0.0097 -0.1129  0.0588
  167CHL    CL2 1014   3.815   0.203   3.447  0.3446  0.1487  0.1781
  167CHL      H 1015   3.788   0.122   3.655 -0.1586  3.5797  0.5594
  168CHL     CL 1016   3.695   3.864   2.123  0.4487  0.0131 -0.1211
  168CHL      C 1017   3.689   3.929   2.287  0.7092  0.2799 -0.1223
  168CHL    CL1 1018   3.521   3.976   2.336 -0.1439  0.3835 -0.1453
  168CHL    CL2 1019   3.750   3.783   2.393  0.0630 -0.5459  0.3012
  168CHL      H 1020   3.748   4.021   2.291 -2.2098  2.3889 -1.7572
  169CHL     CL 1021   3.073   1.084   1.670 -0.0439  0.3618 -0.3150
  169CHL      C 1022   2.901   1.055   1.656 -0.5227 -0.0015  1.4448
  169CHL    CL1 1023   2.822   0.995   1.806  0.0056 -0.3840  0.0667
  169CHL    CL2 1024   2.815   1.202   1.606 -0.5114 -0.1947 -0.0799
  169CHL      H 1025   2.878   0.981   1.578 -0.0306  1.3508 -0.0287
  170CHL     CL 1026   3.420   0.736   1.507 -0.2385 -0.0557 -0.3530
  170CHL      C 1027   3.419   0.873   1.610 -1.0135 -0.0385 -0.1169
  170CHL    CL1 1028   3.575   0.883   1.693 -0.2470 -0.5069  0.4056
  170CHL    CL2 1029   3.389   1.018   1.503 -0.0780  0.1111  0.2249
  170CHL      H 1030   3.347   0.863   1.691  1.1136 -1.8484  1.6938
  171CHL     CL 1031   1.546   1.094   4.020 -0.0199 -0.0220  0.3803
  171CHL      C 1032   1.441   1.123   4.160  0.0577 -0.4959  0.1333
  171CHL    CL1 1033   1.352   1.283   4.156 -0.0012  0.4635 -0.2337
  171CHL    CL2 1034   1.320   0.992   4.172  0.2482  0.0747 -0.3625
  171CHL      H 1035   1.507   1.119   4.247  0.9112  2.2181 -0.3098
  172CHL     CL 1036   0.866   0.383   0.799 -0.2906  0.2268 -0.2466
  172CHL      C 1037   0.804   0.287   0.654  0.8107  0.1320  0.1443
  172CHL    CL1 1038   0.627   0.316   0.630 -0.1370 -0.1951 -0.2106
  172CHL    CL2 1039   0.900   0.326   0.500  0.0470 -0.1341 -0.3087
  172CHL      H 1040   0.814   0.180   0.676 -1.0783 -0.0920  0.0228
  173CHL     CL 1041   2.959   2.404   2.712 -0.3162  0.0675 -0.0776
  173CHL      C 1042   3.103   2.508   2.705 -0.4771  0.3894  0.6673
  173CHL    CL1 1043   3.225   2.425   2.603  0.2625  0.2927 -0.0380
  173CHL    CL2 1044   3.055   2.669   2.640  0.4374 -0.1651  0.1454
  173CHL      H 1045   3.145   2.522   2.806 -2.2710 -0.1084  1.5280
  174CHL     CL 1046   3.594   0.906   4.302  0.0589  0.2146  0.4958
  174CHL      C 1047   3.679   1.003   4.173  0.2176 -0.3351  0.1222
  174CHL    CL1 1048   3.850   1.005   4.204  0.3429  0.0951 -0.1707
  174CHL    CL2 1049   3.660   0.929   4.013  0.0440  0.2367  0.1390
  174CHL      H 1050   3.646   1.107   4.163  0.2580 -0.4176 -0.9677
  175CHL     CL 1051   1.196   1.948   1.900  0.0765  0.1463  0.3438
  175CHL      C 1052   1.320   1.826   1.929  0.0836  0.9854 -0.0276
  175CHL    CL1 1053   1.300   1.719   1.787 -0.0361 -0.1012 -0.0422
  175CHL    CL2 1054   1.476   1.905   1.937 -0.2793 -0.2004  0.0587
  175CHL      H 1055   1.297   1.781   2.026 -1.1207  0.4865 -0.5268
  176CHL     CL 1056   3.960   4.024   4.389  0.3256 -0.0814  0.1867
  176CHL      C 1057   3.904   3.866   4.463 -0.1255  0.0798  0.1813
  176CHL    CL1 1058   3.789   3.760   4.362 -0.2482 -0.0077  0.3525
  176CHL    CL2 1059   4.044   3.770   4.504  0.0256  0.1108  0.1235
  176CHL      H 1060   3.856   3.892   4.558 -0.3432 -1.4187  0.5064
  177CHL     CL 1061   0.747   1.895   3.549  0.0722 -0.1482  0.1831
  177CHL      C 1062   0.903   1.832   3.485  0.0904  0.0496 -0.1601
  177CHL    CL1 1063   0.936   1.899   3.324  0.1637  0.1758 -0.4497
  177CHL    CL2 1064   1.035   1.898   3.592  0.1890 -0.1325  0.4007
  177CHL      H 1065   0.904   1.723   3.489 -3.1802 -0.3592 -4.1214
  178CHL     CL 1066   1.029   0.749   0.086 -0.1506  0.1136  0.3281
  178CHL      C 1067   0.900   0.615   0.094  0.9127 -0.3189 -0.8384
  178CHL    CL1 1068   0.747   0.695   0.107  0.0493 -0.0581 -0.6108
  178CHL    CL2 1069   0.935   0.521  -0.066  0.4087 -0.1949  0.2205
  178CHL      H 1070   0.910   0.550   0.182  3.0614 -0.5159 -1.1824
  179CHL     CL 1071   3.501   0.505   4.293  0.1836 -0.0471  0.1887
  179CHL      C 1072   3.578   0.345   4.312 -0.4489 -0.8537 -0.4399
  179CHL    CL1 1073   3.463   0.209   4.288 -0.0051  0.0082 -0.1502
  179CHL    CL2 1074   3.709   0.332   4.192  0.0634 -0.5536  0.4556
  179CHL      H 1075   3.626   0.346   4.411 -1.7193 -1.0384  0.2027
  180CHL     CL 1076   1.366   2.556   2.544 -0.0051 -0.1177 -0.0503
  180CHL      C 1077   1.217   2.572   2.428  0.4012 -0.4114 -0.8458
  180CHL    CL1 1078   1.090   2.695   2.485  0.0904  0.1198 -0.0088
  180CHL    CL2 1079   1.277   2.617   2.260 -0.3845  0.1696 -0.1370
  180CHL      H 1080   1.165   2.476   2.424 -0.4718  0.0192 -0.3222
  181CHL     CL 1081   1.206   3.060   2.370 -0.1040 -0.0345 -0.0774
  181CHL      C 1082   1.119   3.074   2.206 -0.5922 -0.2853 -0.4223
  181CHL    CL1 1083   1.238   3.134   2.073  0.2409 -0.4485  0.1938
  181CHL    CL2 1084   1.052   2.907   2.165  0.4150  0.0138 -0.0307
  181CHL      H 1085   1.045   3.154   2.215  2.7186  2.9840  0.4487
  182CHL     CL 1086   0.068   1.327   3.773  0.0245  0.1381  0.2185
  182CHL      C 1087   0.094   1.193   3.656  0.1516 -0.3789  0.1307
  182CHL    CL1 1088   0.145   1.038   3.746 -0.0263 -0.1117  0.2889
  182CHL    CL2 1089  -0.041   1.178   3.550  0.1214  0.2780  0.2243
  182CHL      H 1090   0.181   1.223   3.596 -0.6932  1.4578 -0.2437
  183CHL     CL 1091   0.679   0.170   3.989 -0.2516  0.2324 -0.2186
  183CHL      C 1092   0.846   0.156   4.044  0.1939  0.3292 -0.2488
  183CHL    CL1 1093   0.918   0.004   3.975  0.3063 -0.1142  0.5759
  183CHL    CL2 1094   0.945   0.290   3.993 -0.4838  0.2947 -0.3300
  183CHL      H 1095   0.852   0.144   4.153 -0.9462 -0.7322 -0.2868
  184CHL     CL 1096   1.817   1.319   0.852  0.2007  0.0710  0.4711
  184CHL      C 1097   1.759   1.233   1.006  0.8420 -0.7844 -0.1335
  184CHL    CL1 1098   1.589   1.287   1.027  0.5901 -0.2422  0.2823
  184CHL    CL2 1099   1.766   1.052   0.995  0.3125  0.3593  0.0752
  184CHL      H 1100   1.821   1.256   1.093 -1.5646  0.5530  1.3782
  185CHL     CL 1101   0.947   1.792   2.931 -0.2301 -0.2215 -0.3440
  185CHL      C 1102   1.000   1.622   2.971 -1.0357 -0.9406  0.2646
  185CHL    CL1 1103   1.174   1.630   3.033 -0.6045  0.0982 -0.1535
  185CHL    CL2 1104   0.886   1.560   3.088 -0.0302 -0.2764  0.0806
  185CHL      H 1105   0.985   1.554   2.886  0.4075 -1.1935  0.1955
  186CHL     CL 1106   3.370   4.086   3.047 -0.0681  0.1368 -0.0478
  186CHL      C 1107   3.435   4.152   3.186 -0.5535  0.4663 -0.2068
  186CHL    CL1 1108   3.496   4.026   3.296 -0.2800  0.4082  0.1081
  186CHL    CL2 1109   3.575   4.271   3.151  0.1202 -0.1925 -0.0524
  186CHL      H 1110   3.366   4.215   3.243  0.1120  1.1360 -0.1158
  187CHL     CL 1111   0.772   4.084   0.375 -0.2690  0.0560  0.2484
  187CHL      C 1112   0.677   4.013   0.513  0.7183 -0.2691 -0.0540
  187CHL    CL1 1113   0.725   4.082   0.677  0.0204  0.0819 -0.1705
  187CHL    CL2 1114   0.502   4.040   0.470 -0.3004  0.1956 -0.2243
  187CHL      H 1115   0.698   3.905   0.520  1.0403 -0.1689  0.5548
  188CHL     CL 1116   3.080   2.658   3.956 -0.1636  0.0042  0.1470
  188CHL      C 1117   3.104   2.774   4.088 -0.3997  0.1377 -0.4245
  188CHL    CL1 1118   2.945   2.856   4.148 -0.3434 -0.1296 -0.3820
  188CHL    CL2 1119   3.162   2.693   4.227  0.2005 -0.1077 -0.1544
  188CHL      H 1120   3.176   2.846   4.049 -1.8061  0.8049 -1.9123
  189CHL     CL 1121   1.460   2.741   0.466 -0.2977 -0.1429  0.0430
  189CHL      C 1122   1.615   2.754   0.380 -0.4062  0.0511  0.3887
  189CHL    CL1 1123   1.761   2.731   0.493  0.0703  0.6901 -0.2118
  189CHL    CL2 1124   1.622   2.616   0.270  0.0011 -0.2203 -0.0852
  189CHL      H 1125   1.616   2.843   0.316 -3.2847 -0.4703 -0.5277
  190CHL     CL 1126   0.027   0.504   4.237  0.2557 -0.1360 -0.0666
  190CHL      C 1127  -0.141   0.525   4.305  0.0856  0.1254  0.0074
  190CHL    CL1 1128  -0.183   0.386   4.404  0.2090  0.1547  0.4987
  190CHL    CL2 1129  -0.146   0.690   4.391  0.2974 -0.1656 -0.1454
  190CHL      H 1130  -0.210   0.536   4.220 -2.7637 -2.2107  1.8242
  191CHL     CL 1131   0.425   0.517   2.568 -0.6065  0.4211 -0.0421
  191CHL      C 1132   0.533   0.515   2.713  0.1191 -0.2933 -0.1636
  191CHL    CL1 1133   0.501   0.674   2.812  0.2113  0.3108 -0.1063
  191CHL    CL2 1134   0.503   0.369   2.825  0.4113  0.4309 -0.0370
  191CHL      H 1135   0.637   0.503   2.681 -0.0014 -2.8145  0.1561
  192CHL     CL 1136   4.389   2.060   0.911  0.3319  0.0505 -0.2841
  192CHL      C 1137   4.459   2.065   1.074  0.6628 -0.8530  0.3153
  192CHL    CL1 1138   4.640   2.042   1.063 -0.0757  0.0008 -0.2480
  192CHL    CL2 1139   4.423   2.230   1.151  0.3326 -0.0684  0.2593
  192CHL      H 1140   4.413   1.985   1.134  1.9693 -2.8891 -1.2609
  193CHL     CL 1141   1.519   3.591   2.284  0.5443 -0.0697  0.1562
  193CHL      C 1142   1.512   3.416   2.246 -0.0038 -0.5279  0.3629
  193CHL    CL1 1143   1.599   3.377   2.094  0.1356  0.0386 -0.0717
  193CHL    CL2 1144   1.595   3.340   2.386 -0.2328 -0.0272  0.2212
  193CHL      H 1145   1.411   3.373   2.247 -1.2170  2.1607  0.5844
  194CHL     CL 1146   3.125   3.235   1.769 -0.4486 -0.0934  0.3293
  194CHL      C 1147   3.175   3.388   1.847  0.1568 -0.2590  0.1939
  194CHL    CL1 1148   3.029   3.473   1.907 -0.0748  0.4594 -0.3544
  194CHL    CL2 1149   3.281   3.331   1.988 -0.0320  0.1426  0.0347
  194CHL      H 1150   3.234   3.447   1.777 -1.2310  0.7702 -0.1685
  195CHL     CL 1151   0.189   3.923   2.828 -0.1677  0.0212  0.4524
  195CHL      C 1152   0.213   4.042   2.695 -0.2582  0.0244 -1.1294
  195CHL    CL1 1153   0.132   3.975   2.564  0.1597 -0.4036  0.1433
  195CHL    CL2 1154   0.148   4.197   2.741  0.0801 -0.0304  0.1808
  195CHL      H 1155   0.322   4.049   2.685 -0.1448  1.9421  0.6218
  196CHL     CL 1156   3.790   2.205   0.890 -0.2027  0.0500  0.3023
  196CHL      C 1157   3.971   2.215   0.847  0.1589  0.2041  0.2327
  196CHL    CL1 1158   3.992   2.335   0.715 -0.3406 -0.6615 -0.2583
  196CHL    CL2 1159   4.063   2.263   1.006 -0.0667 -0.1817 -0.1497
  196CHL      H 1160   4.012   2.117   0.819  1.4896 -0.3633  3.7670
  197CHL     CL 1161   0.851   1.347   4.273 -0.2698 -0.2852 -0.7851
  197CHL      C 1162   0.957   1.202   4.308  0.3527 -0.6369 -0.4177
  197CHL    CL1 1163   1.097   1.237   4.430  0.5466 -0.1605 -0.1473
  197CHL    CL2 1164   0.860   1.059   4.363  0.1414 -0.3548 -0.3413
  197CHL      H 1165   1.011   1.170   4.219 -0.9317 -1.8607 -0.7909
  198CHL     CL 1166   0.420   1.882   0.695  0.3428  0.1172  0.0799
  198CHL      C 1167   0.343   1.720   0.750 -0.2170  0.2366  0.2333
  198CHL    CL1 1168   0.168   1.734   0.768 -0.1772  0.1681  0.1585
  198CHL    CL2 1169   0.377   1.594   0.629 -0.0646  0.2315 -0.2960
  198CHL      H 1170   0.388   1.703   0.849  1.6624  0.7442 -0.4774
  199CHL     CL 1171   4.178   2.728   3.889  0.1951 -0.5731  0.2643
  199CHL      C 1172   4.078   2.604   3.965 -0.0193  0.4890 -0.3564
  199CHL    CL1 1173   3.909   2.673   4.018 -0.4322 -0.1919  0.0431
  199CHL    CL2 1174   4.039   2.471   3.846 -0.3827  0.0250  0.1496
  199CHL      H 1175   4.144   2.568   4.044  2.6745  1.8999 -1.8126
  200CHL     CL 1176   2.707   3.438   3.623 -0.0034 -0.0895  0.1312
  200CHL      C 1177   2.834   3.299   3.624  0.7395 -0.3616 -0.1113
  200CHL    CL1 1178   2.790   3.161   3.718 -0.5760 -0.0006  0.4015
  200CHL    CL2 1179   2.863   3.253   3.452 -0.1263 -0.0754 -0.0498
  200CHL      H 1180   2.929   3.340   3.662 -0.6289  1.3739  1.6375
  201CHL     CL 1181   2.954   0.633   4.320  0.1319 -0.2096  0.0406
  201CHL      C 1182   3.138   0.623   4.314 -0.1605  0.0363  0.0473
  201CHL    CL1 1183   3.179   0.492   4.185 -0.1521 -0.4427  0.4204
  201CHL    CL2 1184   3.187   0.768   4.245 -0.1025 -0.0241 -0.5327
  201CHL      H 1185   3.182   0.607   4.413 -1.5845 -1.2216  0.5161
  202CHL     CL 1186   3.587   1.923   1.475  0.4570 -0.0186 -0.0151
  202CHL      C 1187   3.417   1.856   1.473 -0.4887  0.0207 -0.6494
  202CHL    CL1 1188   3.357   1.836   1.640 -0.3782  0.1370 -0.1526
  202CHL    CL2 1189   3.301   1.945   1.377  0.2028  0.1829  0.0467
  202CHL      H 1190   3.418   1.753   1.435 -2.5861 -0.4177  0.3175
  203CHL     CL 1191   0.631   0.859   1.001 -0.1104  0.1822 -0.2066
  203CHL      C 1192   0.701   0.868   1.168  0.6233  0.0360  0.6759
  203CHL    CL1 1193   0.847   0.975   1.157 -0.2595 -0.0258 -0.5915
  203CHL    CL2 1194   0.574   0.928   1.288 -0.3006 -0.3616 -0.0910
  203CHL      H 1195   0.734   0.767   1.195  0.0507 -0.4103 -0.2447
  204CHL     CL 1196   3.025   4.058   3.309 -0.4584 -0.0239 -0.4537
  204CHL      C 1197   3.110   4.086   3.463  0.2253  0.3113 -0.2405
  204CHL    CL1 1198   3.126   4.261   3.461 -0.1612  0.0804  0.0819
  204CHL    CL2 1199   3.002   4.055   3.601  0.0152  0.2497 -0.0319
  204CHL      H 1200   3.211   4.045   3.472  0.1331  0.4444  1.7824
  205CHL     CL 1201   1.249   2.083   2.204 -0.1948 -0.0822 -0.1162
  205CHL      C 1202   1.347   2.057   2.363  0.9748  0.5351  0.1055
  205CHL    CL1 1203   1.507   1.990   2.317  0.1133  0.0205 -0.2990
  205CHL    CL2 1204   1.373   2.206   2.453  0.2980 -0.3216 -0.2491
  205CHL      H 1205   1.291   1.992   2.431  1.6289 -1.4268 -1.1746
  206CHL     CL 1206   0.466   1.994   2.260  0.2863 -0.0644 -0.2563
  206CHL      C 1207   0.300   2.046   2.300  0.0754  0.6078 -0.8277
  206CHL    CL1 1208   0.290   2.215   2.319 -0.6019 -0.2897 -0.3091
  206CHL    CL2 1209   0.181   1.995   2.178 -0.1149  0.0535 -0.2432
  206CHL      H 1210   0.264   2.007   2.396  0.8974  2.5757  0.3336
  207CHL     CL 1211   1.306   1.902   4.393 -0.2947 -0.5297  0.2688
  207CHL      C 1212   1.211   1.828   4.522 -0.1373 -0.1777  0.4820
  207CHL    CL1 1213   1.095   1.944   4.595  0.0092  0.4430 -0.2402
  207CHL    CL2 1214   1.128   1.681   4.456 -0.2234  0.1141 -0.1405
  207CHL      H 1215   1.288   1.803   4.596  0.2620  2.3722  0.9962
  208CHL     CL 1216   2.829   1.346   2.388 -0.1206  0.4795 -0.0423
  208CHL      C 1217   2.778   1.313   2.217 -0.1498  0.0558 -1.0688
  208CHL    CL1 1218   2.912   1.370   2.118  0.3011 -0.1739  0.0022
  208CHL    CL2 1219   2.764   1.141   2.198  0.0069 -0.2485  0.7060
  208CHL      H 1220   2.688   1.372   2.197  0.9746  1.7519 -1.3749
  209CHL     CL 1221   1.885   2.839   0.868 -0.2893  0.0321 -0.0769
  209CHL      C 1222   1.890   2.882   1.047  0.4836 -0.5252  0.2559
  209CHL    CL1 1223   2.036   2.972   1.079  0.3813 -0.0421  0.0256
  209CHL    CL2 1224   1.756   2.988   1.102  0.4659  0.0463  0.1182
  209CHL      H 1225   1.891   2.797   1.116 -0.1086  1.8986  3.5304
  210CHL     CL 1226   3.047   2.954   0.355 -0.2482  0.1890 -0.1236
  210CHL      C 1227   2.916   2.953   0.228 -0.6099 -0.1021 -0.3335
  210CHL    CL1 1228   2.760   2.943   0.312 -0.3293  0.4197 -0.0387
  210CHL    CL2 1229   2.928   3.097   0.113  0.3468  0.0836 -0.1777
  210CHL      H 1230   2.921   2.860   0.170  1.1170 -1.5961  2.0191
  211CHL     CL 1231   1.310   3.444   1.353 -0.1550 -0.0768 -0.2001
  211CHL      C 1232   1.408   3.308   1.423  0.0182 -0.6544 -0.3513
  211CHL    CL1 1233   1.480   3.204   1.298 -0.2493  0.0605  0.0636
  211CHL    CL2 1234   1.541   3.369   1.519  0.1214 -0.0966 -0.1277
  211CHL      H 1235   1.343   3.249   1.488 -1.3354 -1.3757 -2.2557
  212CHL     CL 1236   1.092   0.267   3.556 -0.5878  0.5447  0.3684
  212CHL      C 1237   1.201   0.189   3.672  0.2007 -0.0029  0.4821
  212CHL    CL1 1238   1.315   0.094   3.572 -0.4810  0.4465 -0.0701
  212CHL    CL2 1239   1.290   0.305   3.777  0.3951 -0.1281 -0.3269
  212CHL      H 1240   1.146   0.117   3.734 -2.8746 -0.6878 -2.6946
  213CHL     CL 1241   1.990   4.140   3.606 -0.5177 -0.2826 -0.1613
  213CHL      C 1242   1.883   4.122   3.751 -0.3673  0.1706  0.4880
  213CHL    CL1 1243   1.975   4.116   3.909 -0.0782 -0.1508  0.2680
  213CHL    CL2 1244   1.764   4.251   3.762 -0.0110 -0.0253  0.1163
  213CHL      H 1245   1.829   4.027   3.748 -0.7749  0.4065 -1.3172
  214CHL     CL 1246   2.960   1.444   0.710  0.2870 -0.2211  0.3785
  214CHL      C 1247   2.887   1.430   0.547  0.2345  0.2790  0.8581
  214CHL    CL1 1248   3.004   1.423   0.414 -0.2832  0.0615 -0.0589
  214CHL    CL2 1249   2.773   1.289   0.537  0.0885  0.2132  0.1618
  214CHL      H 1250   2.827   1.519   0.523  0.1211 -0.5469 -2.3934
  215CHL     CL 1251   4.349   2.093   0.530  0.2452  0.0993  0.5760
  215CHL      C 1252   4.438   2.243   0.484  0.5614  0.2872 -0.0199
  215CHL    CL1 1253   4.500   2.229   0.315  0.0650 -0.0828  0.0883
  215CHL    CL2 1254   4.334   2.379   0.486 -0.0238 -0.0455 -0.0036
  215CHL      H 1255   4.527   2.268   0.544  1.5745  4.6817 -2.9366
  216CHL     CL 1256   4.231   1.796   2.691  0.1463  0.0076 -0.0749
  216CHL      C 1257   4.276   1.967   2.660 -0.0643 -0.5542 -0.3300
  216CHL    CL1 1258   4.366   1.986   2.499 -0.2403 -0.2717  0.0859
  216CHL    CL2 1259   4.121   2.057   2.649  0.4206 -0.0310  0.0132
  216CHL      H 1260   4.329   2.012   2.745 -0.6842 -0.8271  0.2175
  217CHL     CL 1261   1.509   0.269   0.841  0.1647  0.2843 -0.5417
  217CHL      C 1262   1.679   0.222   0.870  0.5542  0.0398 -0.2636
  217CHL    CL1 1263   1.798   0.288   0.749  0.3296 -0.3045 -0.4190
  217CHL    CL2 1264   1.714   0.295   1.028 -0.4017 -0.0458 -0.2264
  217CHL      H 1265   1.694   0.114   0.876 -0.7714 -0.1904 -0.8259
  218CHL     CL 1266   1.924   3.986   1.085 -0.0574  0.0142 -0.0504
  218CHL      C 1267   2.020   4.121   1.018  0.3911 -0.6227  0.9699
  218CHL    CL1 1268   2.136   4.077   0.887  0.1462 -0.1337  0.5931
  218CHL    CL2 1269   1.903   4.249   0.947  0.3225 -0.1891 -0.0574
  218CHL      H 1270   2.085   4.166   1.093  0.4631  2.6918 -0.8993
  219CHL     CL 1271   1.904   2.291   2.788  0.1489  0.1797  0.1077
  219CHL      C 1272   2.022   2.291   2.652  0.3044  0.5193 -0.7145
  219CHL    CL1 1273   1.940   2.371   2.515  0.2364  0.3418 -0.1016
  219CHL    CL2 1274   2.169   2.384   2.713  0.3790 -0.2061 -0.0949
  219CHL      H 1275   2.049   2.191   2.617  0.6606  0.9262 -1.6360
  220CHL     CL 1276   3.507   3.936   0.016 -0.1994 -0.1235  0.0865
  220CHL      C 1277   3.594   4.038  -0.108 -0.3580  0.8745  0.3107
  220CHL    CL1 1278   3.548   3.994  -0.279 -0.1841  0.4360 -0.0057
  220CHL    CL2 1279   3.574   4.214  -0.088  0.3141 -0.2466 -0.0400
  220CHL      H 1280   3.701   4.014  -0.099 -0.3993 -0.5621 -2.0964
  221CHL     CL 1281   4.307   0.664   3.604  0.3414  0.1844  0.2801
  221CHL      C 1282   4.214   0.546   3.711  0.5398  0.4388  0.3383
  221CHL    CL1 1283   4.202   0.378   3.609 -0.0653 -0.4643  0.5003
  221CHL    CL2 1284   4.298   0.501   3.860  0.2199 -0.0795  0.6062
  221CHL      H 1285   4.117   0.589   3.737  1.4776  2.5620  0.4785
  222CHL     CL 1286   1.581   0.811   3.057 -0.2734 -0.0797  0.6289
  222CHL      C 1287   1.747   0.776   2.968  0.0593 -0.6211 -0.9114
  222CHL    CL1 1288   1.761   0.847   2.806 -0.2846 -0.0774  0.0948
  222CHL    CL2 1289   1.887   0.832   3.071 -0.0612 -0.1735  0.3115
  222CHL      H 1290   1.759   0.667   2.964 -0.6707 -0.8033  0.9340
  223CHL     CL 1291   1.939   3.617   3.963  0.1185 -0.3458  0.0936
  223CHL      C 1292   1.826   3.707   3.860  0.8621 -1.0953  0.7253
  223CHL    CL1 1293   1.761   3.847   3.956  0.5015 -0.1641  0.1334
  223CHL    CL2 1294   1.914   3.775   3.716 -0.4280  0.0356 -0.2594
  223CHL      H 1295   1.743   3.641   3.833 -0.5023  0.7604  0.2042
  224CHL     CL 1296   0.517   1.124   4.124  0.0798 -0.3482 -0.2367
  224CHL      C 1297   0.381   1.169   4.003 -0.2711  0.0030 -0.7038
  224CHL    CL1 1298   0.219   1.177   4.085  0.2484  0.4235  0.1454
  224CHL    CL2 1299   0.419   1.332   3.942 -0.0696  0.1183  0.0934
  224CHL      H 1300   0.388   1.097   3.921 -2.1769  1.3260 -2.1311
  225CHL     CL 1301   3.277   4.168   3.909  0.0156 -0.1822 -0.0992
  225CHL      C 1302   3.354   4.313   3.959 -0.0031  0.0934  0.1390
  225CHL    CL1 1303   3.529   4.327   3.900 -0.5255 -0.0842  0.1727
  225CHL    CL2 1304   3.269   4.463   3.893 -0.3969 -0.0500 -0.2525
  225CHL      H 1305   3.346   4.318   4.068  1.0181  0.8350  0.1923
  226CHL     CL 1306   0.378   0.580   3.471  0.4648  0.1476 -0.4251
  226CHL      C 1307   0.500   0.580   3.339 -0.5052  0.4871 -0.3668
  226CHL    CL1 1308   0.416   0.566   3.181 -0.3848 -0.1521 -0.1213
  226CHL    CL2 1309   0.597   0.728   3.368 -0.1314 -0.0631  0.0146
  226CHL      H 1310   0.561   0.492   3.361 -0.7951  0.4726  0.4260
  227CHL     CL 1311   0.485   1.060   0.255 -0.3466  0.2343 -0.0298
  227CHL      C 1312   0.501   1.218   0.183  0.0207 -0.1124  1.0887
  227CHL    CL1 1313   0.417   1.223   0.026  0.3035 -0.1064  0.0706
  227CHL    CL2 1314   0.448   1.347   0.301 -0.3419 -0.0566  0.0267
  227CHL      H 1315   0.604   1.242   0.156 -0.1981 -0.6909 -0.3481
  228CHL     CL 1316   3.703   4.292   1.359  0.2434 -0.3300  0.1324
  228CHL      C 1317   3.851   4.382   1.438  0.4539  0.1088  0.0730
  228CHL    CL1 1318   3.791   4.523   1.529 -0.2021 -0.1520 -0.3263
  228CHL    CL2 1319   3.922   4.281   1.567 -0.0403 -0.0699 -0.4662
  228CHL      H 1320   3.922   4.405   1.358 -0.8572  1.4498 -0.7563
  229CHL     CL 1321   3.486   1.172   0.521 -0.1077 -0.2709  0.0736
  229CHL      C 1322   3.340   1.215   0.618 -0.2160  0.0558 -0.1076
  229CHL    CL1 1323   3.307   1.080   0.729 -0.0146  0.0130  0.0568
  229CHL    CL2 1324   3.376   1.366   0.719 -0.1524  0.0969  0.1559
  229CHL      H 1325   3.248   1.221   0.558 -2.3825 -2.0291  2.7435
  230CHL     CL 1326   4.247   1.079   2.691  0.1379  0.0135 -0.0984
  230CHL      C 1327   4.278   0.961   2.830  0.3485 -0.3996  0.1685
  230CHL    CL1 1328   4.231   1.025   2.983  0.3347  0.8751  0.0760
  230CHL    CL2 1329   4.183   0.812   2.792  0.7398  0.5265  0.4999
  230CHL      H 1330   4.386   0.946   2.847  0.8032  2.1599 -0.0259
  231CHL     CL 1331   3.898   2.675   2.720 -0.4320  0.4009  0.2046
  231CHL      C 1332   3.868   2.851   2.745 -0.0369  0.8132 -0.1598
  231CHL    CL1 1333   3.900   2.902   2.922 -0.4564  0.2236 -0.1948
  231CHL    CL2 1334   3.968   2.946   2.636 -0.0284  0.2152  0.0807
  231CHL      H 1335   3.764   2.875   2.719 -0.8003 -1.3637  0.6123
  232CHL     CL 1336   3.936   4.019   1.813  0.2898 -0.1142 -0.5641
  232CHL      C 1337   4.097   4.107   1.822 -0.4972 -0.7347 -0.1951
  232CHL    CL1 1338   4.212   4.075   1.683  0.1821 -0.1393  0.3035
  232CHL    CL2 1339   4.087   4.289   1.838  0.0843  0.0618  0.0169
  232CHL      H 1340   4.138   4.064   1.914 -3.0294 -1.0479  0.8835
  233CHL     CL 1341   4.155   0.046   1.190  0.1530  0.2206  0.1396
  233CHL      C 1342   4.289   0.076   1.077 -0.1035  0.5666  0.2215
  233CHL    CL1 1343   4.223   0.134   0.920 -0.0981  0.0577 -0.5523
  233CHL    CL2 1344   4.424   0.178   1.128  0.0837  0.1348 -0.0360
  233CHL      H 1345   4.328  -0.026   1.073 -0.4635  0.3901  0.9716
  234CHL     CL 1346   0.850   4.210   2.642 -0.1714 -0.2046  0.0306
  234CHL      C 1347   0.705   4.110   2.620  0.1837 -0.4457  0.0821
  234CHL    CL1 1348   0.696   3.974   2.743  0.0480 -0.4454 -0.2361
  234CHL    CL2 1349   0.547   4.207   2.610 -0.1964  0.0976  0.2479
  234CHL      H 1350   0.706   4.051   2.527  0.3083  0.2116 -0.3430
  235CHL     CL 1351   3.294   3.760   3.587 -0.1178 -0.1690 -0.2422
  235CHL      C 1352   3.258   3.653   3.447 -0.2580  0.2842  0.0078
  235CHL    CL1 1353   3.085   3.626   3.409  0.4694 -0.3893 -0.3004
  235CHL    CL2 1354   3.331   3.722   3.308  0.1408 -0.0862 -0.4937
  235CHL      H 1355   3.304   3.554   3.460  0.9052  0.8547  0.3683
  236CHL     CL 1356   3.678   3.270   1.461  0.3483  0.0502 -0.2684
  236CHL      C 1357   3.508   3.329   1.428  0.4531 -0.6730  0.6296
  236CHL    CL1 1358   3.483   3.324   1.240  0.5287 -0.1946 -0.5607
  236CHL    CL2 1359   3.395   3.223   1.519 -0.2328  0.1548 -0.2400
  236CHL      H 1360   3.506   3.432   1.464 -0.4739  0.0180 -1.2824
  237CHL     CL 1361   2.677   0.837   3.386 -0.0439 -0.4506 -0.0869
  237CHL      C 1362   2.692   0.687   3.477 -0.5260  0.2170  0.4706
  237CHL    CL1 1363   2.566   0.688   3.615 -0.0714  0.5626  0.0670
  237CHL    CL2 1364   2.672   0.539   3.377 -0.1695  0.6593 -0.1597
  237CHL      H 1365   2.790   0.692   3.526  0.8726 -1.1322 -1.9948
  238CHL     CL 1366   3.936   0.794   3.182  0.1231 -0.2044  0.0900
  238CHL      C 1367   4.040   0.719   3.303 -0.0644  0.2962 -0.0588
  238CHL    CL1 1368   4.117   0.854   3.401  0.0491  0.0875 -0.0283
  238CHL    CL2 1369   3.950   0.614   3.414 -0.2826 -0.2230 -0.1866
  238CHL      H 1370   4.118   0.666   3.247 -0.0009 -0.3822  0.6443
  239CHL     CL 1371   3.906   0.284   1.218  0.4426  0.2318  0.1309
  239CHL      C 1372   4.063   0.357   1.180 -0.2463 -0.1576  0.3353
  239CHL    CL1 1373   4.040   0.526   1.143  0.2539 -0.2227  0.2425
  239CHL    CL2 1374   4.158   0.354   1.327 -0.2388  0.4141 -0.0448
  239CHL      H 1375   4.121   0.307   1.102  1.5709 -0.7223  1.9740
  240CHL     CL 1376   1.275   2.568   1.411  0.1888 -0.2544 -0.0823
  240CHL      C 1377   1.367   2.642   1.284 -0.3822 -0.4731 -0.2912
  240CHL    CL1 1378   1.320   2.582   1.122  0.0925 -0.1479 -0.1812
  240CHL    CL2 1379   1.334   2.818   1.279  0.3024 -0.1580  0.2634
  240CHL      H 1380   1.474   2.620   1.291 -0.6444 -1.4245  1.1620
  241CHL     CL 1381   1.054   3.474   1.613 -0.2509 -0.3408  0.0035
  241CHL      C 1382   1.113   3.435   1.776 -0.0034  0.0025  0.1669
  241CHL    CL1 1383   1.014   3.300   1.856 -0.2596  0.4875 -0.1252
  241CHL    CL2 1384   1.283   3.380   1.769 -0.7118 -0.2324 -0.5761
  241CHL      H 1385   1.104   3.521   1.843 -0.3118 -0.2348  0.4349
  242CHL     CL 1386   1.174   1.946   0.766 -0.2318 -0.3021  0.1491
  242CHL      C 1387   1.193   2.030   0.600  0.0336 -0.2934  0.1602
  242CHL    CL1 1388   1.292   1.915   0.504  0.0586  0.1970 -0.0591
  242CHL    CL2 1389   1.036   2.050   0.516  0.3125 -0.2876 -0.0513
  242CHL      H 1390   1.259   2.117   0.594 -1.2220  0.5746 -2.4756
  243CHL     CL 1391   1.514   2.824   2.201  0.0206  0.3203  0.0925
  243CHL      C 1392   1.571   2.992   2.260 -0.2094 -0.4094  1.2448
  243CHL    CL1 1393   1.660   2.974   2.425 -0.0768  0.1633  0.3139
  243CHL    CL2 1394   1.697   3.055   2.151 -0.3387 -0.5244 -0.0106
  243CHL      H 1395   1.493   3.069   2.266  0.0734  0.0766 -0.6938
  244CHL     CL 1396   4.101   3.100   0.224  0.0426 -0.1147  0.0770
  244CHL      C 1397   4.007   2.982   0.129  0.1633 -0.2120 -0.3322
  244CHL    CL1 1398   3.932   2.867   0.239 -0.1572 -0.0664 -0.0245
  244CHL    CL2 1399   3.869   3.068   0.049 -0.1371  0.2071 -0.3924
  244CHL      H 1400   4.070   2.924   0.060 -0.5885  0.4140 -1.5907
  245CHL     CL 1401   0.810   3.761   3.943 -0.2137 -0.3510 -0.2863
  245CHL      C 1402   0.950   3.839   4.037  1.0623  0.0916 -0.3409
  245CHL    CL1 1403   1.112   3.770   3.992  0.1853 -0.2452 -0.3678
  245CHL    CL2 1404   0.943   4.021   4.005  0.2260  0.3629  0.1460
  245CHL      H 1405   0.935   3.814   4.143 -0.5068  0.2044 -0.5113
  246CHL     CL 1406   2.727   4.307   0.950  0.0063 -0.1237  0.2724
  246CHL      C 1407   2.551   4.282   0.985  0.3311 -0.6960 -0.1160
  246CHL    CL1 1408   2.549   4.238   1.157  0.0664  0.2511  0.3441
  246CHL    CL2 1409   2.461   4.425   0.952 -0.4218 -0.1223 -0.1220
  246CHL      H 1410   2.510   4.200   0.925 -2.8100  1.0471 -0.5876
  247CHL     CL 1411   2.147   2.960   0.002 -0.0558  0.4359 -0.0706
  247CHL      C 1412   1.971   2.939  -0.004  0.5679 -0.4477 -0.5672
  247CHL    CL1 1413   1.912   2.907  -0.171  0.3104 -0.6306 -0.0106
  247CHL    CL2 1414   1.894   2.821   0.113 -0.8276  0.1024  0.0054
  247CHL      H 1415   1.925   3.034   0.027  2.1536  0.6957 -1.5848
  248CHL     CL 1416   4.351   3.561   0.512 -0.1139 -0.0585  0.5567
  248CHL      C 1417   4.256   3.445   0.412 -0.0079 -0.9938  0.4370
  248CHL    CL1 1418   4.341   3.422   0.252  0.2806  0.1167 -0.0888
  248CHL    CL2 1419   4.257   3.284   0.496 -0.0892  0.2824  0.1284
  248CHL      H 1420   4.154   3.485   0.403 -0.0686 -0.2137  3.4693
  249CHL     CL 1421   1.188   2.501   3.475 -0.5964 -0.0081 -0.1448
  249CHL      C 1422   1.177   2.379   3.346  0.0922  0.0547 -0.8942
  249CHL    CL1 1423   1.229   2.220   3.420 -0.1654 -0.2649  0.0737
  249CHL    CL2 1424   1.002   2.371   3.282 -0.0769  0.2616 -0.0130
  249CHL      H 1425   1.244   2.397   3.261 -0.3020 -3.6205 -2.1162
  250CHL     CL 1426   0.284   3.719   1.465  0.0776  0.0814 -0.1661
  250CHL      C 1427   0.307   3.542   1.397  0.6246 -0.0205  0.8676
  250CHL    CL1 1428   0.176   3.431   1.459 -0.0760  0.5711  0.2618
  250CHL    CL2 1429   0.303   3.549   1.208 -0.1655 -0.2713  0.0312
  250CHL      H 1430   0.407   3.510   1.428  1.0668 -0.0734 -0.5203
  251CHL     CL 1431   2.410   0.410   3.184  0.3898 -0.2141 -0.0010
  251CHL      C 1432   2.480   0.365   3.034 -0.5199  0.1795  0.3423
  251CHL    CL1 1433   2.652   0.300   3.075  0.0887 -0.0701  0.0338
  251CHL    CL2 1434   2.372   0.246   2.961 -0.0976 -0.1472 -0.1225
  251CHL      H 1435   2.489   0.452   2.969  1.7531  0.9491  1.6044
  252CHL     CL 1436   0.738   2.969   2.617  0.0394 -0.0775  0.3800
  252CHL      C 1437   0.881   3.041   2.533 -0.0033 -0.2970  0.7241
  252CHL    CL1 1438   0.821   3.173   2.425 -0.8589 -0.2639 -0.1029
  252CHL    CL2 1439   0.993   3.091   2.656  0.1199 -0.2842 -0.1655
  252CHL      H 1440   0.939   2.965   2.480  0.4497  0.6258 -0.1593
  253CHL     CL 1441   2.648   3.979   3.834  0.5004  0.2182 -0.2046
  253CHL      C 1442   2.725   3.843   3.930 -0.3546  0.1413  0.5781
  253CHL    CL1 1443   2.704   3.686   3.849  0.0377  0.1298  0.4042
  253CHL    CL2 1444   2.903   3.876   3.946  0.0586 -0.3882 -0.3311
  253CHL      H 1445   2.677   3.843   4.028 -2.7562  0.9080 -0.5080
  254CHL     CL 1446   0.398   3.976   4.128  0.1994  0.4661  0.2485
  254CHL      C 1447   0.557   4.036   4.080 -1.0325  0.1706 -0.5777
  254CHL    CL1 1448   0.580   4.046   3.901 -0.0066  0.3110  0.1671
  254CHL    CL2 1449   0.582   4.203   4.144 -0.2019  0.2199  0.0571
  254CHL      H 1450   0.633   3.972   4.124 -0.7112  1.0450  0.1566
  255CHL     CL 1451   3.816   1.181   2.308 -0.1357  0.1806  0.0157
  255CHL      C 1452   3.808   1.251   2.478 -0.5101 -0.1454 -0.1903
  255CHL    CL1 1453   3.665   1.180   2.560  0.3765  0.1817 -0.2274
  255CHL    CL2 1454   3.959   1.218   2.566  0.0859  0.1156  0.3249
  255CHL      H 1455   3.790   1.358   2.462  0.3927 -0.2973 -2.5444
  256CHL     CL 1456   3.886   3.217   2.829  0.1139 -0.0740  0.4037
  256CHL      C 1457   3.822   3.296   2.684 -0.3884 -0.9183 -0.6020
  256CHL    CL1 1458   3.717   3.187   2.597  0.0776  0.1376  0.1611
  256CHL    CL2 1459   3.756   3.469   2.709 -0.3794 -0.7023 -0.2017
  256CHL      H 1460   3.916   3.316   2.631  0.2766  0.6834  1.0464
  257CHL     CL 1461   1.184   3.513   2.131 -0.0647  0.1343 -0.0831
  257CHL      C 1462   1.065   3.501   2.259 -0.3880 -0.5735  0.2485
  257CHL    CL1 1463   0.927   3.415   2.189 -0.5293  0.0510 -0.0423
  257CHL    CL2 1464   1.145   3.423   2.384  0.0323  0.2893  0.2745
  257CHL      H 1465   1.040   3.605   2.282  0.2005 -0.1966 -0.7660
  258CHL     CL 1466   2.530   3.862   3.517 -0.4186 -0.0210 -0.1186
  258CHL      C 1467   2.444   3.712   3.575  0.1581  0.1052  0.7522
  258CHL    CL1 1468   2.286   3.744   3.644  0.1183  0.1795  0.3160
  258CHL    CL2 1469   2.422   3.620   3.421 -0.0749  0.1795  0.1554
  258CHL      H 1470   2.512   3.654   3.639  0.6665 -0.0857  0.0512
  259CHL     CL 1471   1.635   1.838   0.640  0.1101 -0.4286  0.0344
  259CHL      C 1472   1.764   1.856   0.760 -0.7917  0.4499 -0.2640
  259CHL    CL1 1473   1.930   1.898   0.693 -0.0863  0.2476  0.3232
  259CHL    CL2 1474   1.707   1.983   0.872 -0.1084  0.2819  0.0952
  259CHL      H 1475   1.773   1.763   0.815 -0.5214  0.4948 -0.2290
  260CHL     CL 1476   2.635   1.056   3.813  0.0227 -0.1394  0.0945
  260CHL      C 1477   2.684   1.217   3.867 -0.8379 -0.4531 -0.4804
  260CHL    CL1 1478   2.575   1.282   3.989 -0.0085 -0.0722 -0.1097
  260CHL    CL2 1479   2.848   1.198   3.939 -0.2294  0.5323  0.2471
  260CHL      H 1480   2.678   1.280   3.778 -2.3785 -1.5849 -1.2219
  261CHL     CL 1481   1.089   2.303   3.755  0.0125 -0.4234 -0.0604
  261CHL      C 1482   1.188   2.164   3.824 -0.3916  0.4807 -0.0328
  261CHL    CL1 1483   1.330   2.131   3.717  0.0122  0.6022  0.2286
  261CHL    CL2 1484   1.237   2.170   4.002  0.1459  0.1666 -0.3365
  261CHL      H 1485   1.126   2.074   3.821 -0.2529  0.3662  0.4262
  262CHL     CL 1486   3.606   2.796   2.492 -0.3284 -0.3001  0.0885
  262CHL      C 1487   3.524   2.636   2.506  0.0357 -0.1635  0.4171
  262CHL    CL1 1488   3.590   2.536   2.375  0.1189 -0.4108 -0.2077
  262CHL    CL2 1489   3.538   2.558   2.662 -0.0808  0.0836 -0.3696
  262CHL      H 1490   3.418   2.647   2.480  0.3788 -0.0820 -1.0326
  263CHL     CL 1491   1.453   3.418   3.111 -0.8413  0.0537  0.2279
  263CHL      C 1492   1.525   3.553   3.203  0.6161  0.5924  0.1727
  263CHL    CL1 1493   1.667   3.510   3.301 -0.5572  0.1379 -0.0496
  263CHL    CL2 1494   1.584   3.677   3.089  0.0740 -0.4742 -0.1465
  263CHL      H 1495   1.449   3.601   3.265  1.0896 -0.6533  1.7793
  264CHL     CL 1496   2.273   0.020   0.579  0.0034 -0.0197  0.3991
  264CHL      C 1497   2.237  -0.149   0.548 -0.1231  0.1227  0.3300
  264CHL    CL1 1498   2.250  -0.166   0.375 -0.1415 -0.4392  0.0142
  264CHL    CL2 1499   2.358  -0.261   0.632  0.3164  0.0643  0.0724
  264CHL      H 1500   2.136  -0.176   0.581 -1.4497  1.2517 -2.4871
  265CHL     CL 1501   1.638   2.961   1.832 -0.0034  0.3513  0.1647
  265CHL      C 1502   1.608   2.848   1.687 -0.4447 -0.1650 -0.3313
  265CHL    CL1 1503   1.435   2.807   1.669  0.1529  0.1177 -0.5593
  265CHL    CL2 1504   1.657   2.925   1.540 -0.3155  0.1905  0.0431
  265CHL      H 1505   1.658   2.751   1.700 -1.3058 -0.5628  0.0813
  266CHL     CL 1506   0.630   2.042   1.079  0.0595  0.1028 -0.2637
  266CHL      C 1507   0.619   2.194   1.178  0.2801  0.0779  0.3559
  266CHL    CL1 1508   0.777   2.240   1.240  0.1015 -0.4184 -0.3179
  266CHL    CL2 1509   0.578   2.336   1.068 -0.2230  0.0318 -0.3682
  266CHL      H 1510   0.546   2.184   1.259  0.1568 -0.4879  0.1772
  267CHL     CL 1511   2.911   2.714   1.706 -0.3483 -0.0590 -0.2255
  267CHL      C 1512   2.861   2.573   1.612  0.2999  0.0843 -0.8009
  267CHL    CL1 1513   2.990   2.448   1.627  0.1857  0.5903 -0.5423
  267CHL    CL2 1514   2.710   2.520   1.687  0.0572  0.7478 -0.0343
  267CHL      H 1515   2.845   2.613   1.511  2.9234  1.6929 -0.6873
  268CHL     CL 1516   0.741   2.101   4.136 -0.1949 -0.0613  0.0526
  268CHL      C 1517   0.834   2.002   4.257  0.7060 -0.1140 -0.2773
  268CHL    CL1 1518   0.878   2.094   4.396 -0.4682 -0.1483  0.3525
  268CHL    CL2 1519   0.735   1.860   4.308  0.0986  0.0165  0.1643
  268CHL      H 1520   0.924   1.970   4.204  0.7028 -2.3468  0.9351
  269CHL     CL 1521   0.798   2.020   1.511 -0.1966 -0.1249 -0.0251
  269CHL      C 1522   0.833   1.850   1.471  0.2625  0.5123  0.0591
  269CHL    CL1 1523   0.980   1.802   1.570 -0.1312  0.2728 -0.0595
  269CHL    CL2 1524   0.705   1.736   1.529  0.3721 -0.1038  0.0974
  269CHL      H 1525   0.846   1.831   1.364 -1.2286 -0.0673 -0.0475
  270CHL     CL 1526   0.419   1.710   0.232 -0.0062  0.2906 -0.3731
  270CHL      C 1527   0.428   1.887   0.232  0.1393  0.0256 -0.1480
  270CHL    CL1 1528   0.314   1.953   0.356 -0.2608 -0.0012  0.1293
  270CHL    CL2 1529   0.592   1.948   0.253 -0.0996 -0.3479  0.1114
  270CHL      H 1530   0.384   1.915   0.135 -0.3233  0.3022  0.1339
  271CHL     CL 1531   0.139   3.009   2.688  0.1686  0.6590 -0.0086
  271CHL      C 1532  -0.043   3.019   2.678  0.7243 -0.0928 -0.3156
  271CHL    CL1 1533  -0.105   3.151   2.566  0.0618  0.3275 -0.4491
  271CHL    CL2 1534  -0.109   2.854   2.639 -0.0631 -0.3258  0.3253
  271CHL      H 1535  -0.078   3.059   2.774  0.1761  1.3944 -1.1003
  272CHL     CL 1536   1.871   0.400   2.926  0.2767  0.0036 -0.0763
  272CHL      C 1537   1.923   0.339   2.766 -0.2311 -0.1584  0.0977
  272CHL    CL1 1538   1.979   0.486   2.676 -0.2978  0.1595 -0.4445
  272CHL    CL2 1539   2.057   0.223   2.788  0.1009 -0.1686  0.3970
  272CHL      H 1540   1.835   0.306   2.711  0.6696  0.5425 -1.8421
  273CHL     CL 1541   0.342   0.534   0.054 -0.1622  0.0726 -0.8257
  273CHL      C 1542   0.399   0.446  -0.091  0.0455  0.3258  0.4793
  273CHL    CL1 1543   0.579   0.423  -0.082  0.1066  0.1513  0.2427
  273CHL    CL2 1544   0.321   0.287  -0.098 -0.0579 -0.2080 -0.5540
  273CHL      H 1545   0.367   0.510  -0.174 -0.4560  1.2816  1.3899
  274CHL     CL 1546   1.813   2.330   1.657 -0.2858 -0.0950  0.0372
  274CHL      C 1547   1.645   2.310   1.611  0.4110 -0.2875 -0.1030
  274CHL    CL1 1548   1.611   2.435   1.491 -0.7006  0.2400  0.3817
  274CHL    CL2 1549   1.627   2.157   1.528  0.1776  0.3148 -0.1855
  274CHL      H 1550   1.570   2.310   1.691 -0.2231  0.7898 -0.6877
  275CHL     CL 1551   0.182   0.351   3.307  0.3660  0.2193 -0.0201
  275CHL      C 1552   0.007   0.334   3.336  0.7888  0.7556  0.3338
  275CHL    CL1 1553  -0.072   0.486   3.273 -0.2418  0.1469  0.4642
  275CHL    CL2 1554  -0.066   0.196   3.257 -0.1337  0.4616 -0.4819
  275CHL      H 1555  -0.009   0.329   3.444  2.1217  2.3245  0.6382
  276CHL     CL 1556   2.849   1.968   3.877  0.0717  0.1795 -0.4622
  276CHL      C 1557   2.759   1.893   3.741 -0.5179 -0.2534  0.1741
  276CHL    CL1 1558   2.756   1.705   3.753  0.2317 -0.2157  0.2373
  276CHL    CL2 1559   2.592   1.953   3.737 -0.0900  0.0351 -0.0437
  276CHL      H 1560   2.811   1.924   3.650  0.2099 -0.7019  0.4306
  277CHL     CL 1561   3.956   4.253   3.745 -0.1312 -0.1710  0.1420
  277CHL      C 1562   4.055   4.241   3.596 -0.1057 -0.3238  0.4923
  277CHL    CL1 1563   4.125   4.398   3.558 -0.4940 -0.0613  0.1942
  277CHL    CL2 1564   4.193   4.120   3.620  0.4408 -0.3469  0.5520
  277CHL      H 1565   3.986   4.201   3.522 -0.6524 -0.1632  0.9087
  278CHL     CL 1566   3.191   2.327   0.940  0.0003 -0.1096  0.4033
  278CHL      C 1567   3.143   2.158   0.922 -0.3557 -0.2341 -0.1648
  278CHL    CL1 1568   3.159   2.105   0.749  0.0631 -0.0727 -0.1432
  278CHL    CL2 1569   3.242   2.047   1.026 -0.2066  0.0194 -0.1120
  278CHL      H 1570   3.040   2.139   0.950 -0.3190 -2.5697 -1.3787
  279CHL     CL 1571   2.352   1.840   2.657 -0.7905 -0.1255 -0.2390
  279CHL      C 1572   2.221   1.847   2.772 -0.2405 -0.6045  0.3828
  279CHL    CL1 1573   2.063   1.902   2.697  0.1121 -0.3073 -0.1872
  279CHL    CL2 1574   2.204   1.683   2.856  0.0180  0.0627 -0.0999
  279CHL      H 1575   2.256   1.926   2.840  2.5163 -0.7944 -0.6895
  280CHL     CL 1576   0.878   3.202   1.524 -0.1092  0.0549 -0.0651
  280CHL      C 1577   0.980   3.084   1.435  0.1034 -0.1797  0.3872
  280CHL    CL1 1578   1.137   3.156   1.406  0.2349  0.5392  0.1149
  280CHL    CL2 1579   1.001   2.938   1.531  0.3145 -0.1405 -0.1399
  280CHL      H 1580   0.939   3.060   1.337 -0.9668 -1.0455  1.0211
  281CHL     CL 1581   4.161   3.588   3.247 -0.1424  0.1791 -0.3589
  281CHL      C 1582   4.312   3.690   3.299  0.2026  0.7851 -0.4261
  281CHL    CL1 1583   4.390   3.756   3.151 -0.1662  0.1974 -0.1015
  281CHL    CL2 1584   4.260   3.828   3.399 -0.0244 -0.3686 -0.1908
  281CHL      H 1585   4.391   3.640   3.355 -0.7085 -0.1403  0.0576
  282CHL     CL 1586   4.043   2.746   0.536  0.0671 -0.4239  0.3306
  282CHL      C 1587   4.201   2.730   0.474  0.3485 -0.4809  0.3691
  282CHL    CL1 1588   4.190   2.680   0.302 -0.4130  0.2179 -0.3306
  282CHL    CL2 1589   4.286   2.893   0.467 -0.0610 -0.1030 -0.4262
  282CHL      H 1590   4.262   2.654   0.525  2.3044  0.2085 -0.7982
  283CHL     CL 1591   4.310   2.496   4.341  0.4986  0.0243  0.0512
  283CHL      C 1592   4.141   2.540   4.362  0.5897  0.2363 -0.6917
  283CHL    CL1 1593   4.097   2.709   4.309  0.3158  0.2109  0.1197
  283CHL    CL2 1594   4.049   2.410   4.270  0.4844 -0.2149 -0.2081
  283CHL      H 1595   4.122   2.538   4.470  1.4838  0.6876 -0.5197
  284CHL     CL 1596   2.184   2.004   0.315  0.3911  0.0410  0.1624
  284CHL      C 1597   2.167   1.862   0.421 -0.2804 -0.3965 -1.2566
  284CHL    CL1 1598   2.053   1.740   0.356 -0.0163 -0.1625 -0.5308
  284CHL    CL2 1599   2.330   1.792   0.454 -0.2561  0.1077 -0.1665
  284CHL      H 1600   2.126   1.893   0.518  1.4262 -1.6781 -0.0667
  285CHL     CL 1601   2.386   1.801   1.982 -0.1501 -0.1494  0.0665
  285CHL      C 1602   2.419   1.706   2.136  0.4683 -0.1553  0.1314
  285CHL    CL1 1603   2.297   1.578   2.160 -0.1446  0.1192 -0.1059
  285CHL    CL2 1604   2.580   1.631   2.116  0.0048  0.1652  0.0486
  285CHL      H 1605   2.422   1.767   2.227 -0.2061 -2.7664  2.0485
  286CHL     CL 1606   1.101   2.002   1.229  0.0992  0.0430 -0.0025
  286CHL      C 1607   1.246   2.053   1.307 -0.9332 -0.3185 -0.0019
  286CHL    CL1 1608   1.322   2.162   1.185 -0.0299 -0.2536 -0.3130
  286CHL    CL2 1609   1.208   2.148   1.462  0.0515 -0.1817 -0.2894
  286CHL      H 1610   1.320   1.974   1.325  0.0304  0.2474 -1.2936
  287CHL     CL 1611   2.348   3.090   2.250  0.2442 -0.0465 -0.0455
  287CHL      C 1612   2.421   3.226   2.160  0.1702 -0.2246  0.1425
  287CHL    CL1 1613   2.344   3.382   2.196  0.2978 -0.1548 -0.4267
  287CHL    CL2 1614   2.589   3.230   2.210  0.3773 -0.2048  0.3286
  287CHL      H 1615   2.413   3.220   2.051  0.4120 -1.9273  0.1765
  288CHL     CL 1616   2.896   0.821   3.733 -0.2745 -0.1957 -0.0028
  288CHL      C 1617   2.955   0.793   3.899  0.4692 -0.3803 -0.1171
  288CHL    CL1 1618   3.095   0.906   3.935  0.0498  0.1859 -0.3880
  288CHL    CL2 1619   2.810   0.830   4.009 -0.3929 -0.1111 -0.2425
  288CHL      H 1620   2.984   0.688   3.911  0.3164 -0.3165  0.9854
  289CHL     CL 1621   3.475   3.607   2.258 -0.2131 -0.3002 -0.0733
  289CHL      C 1622   3.514   3.447   2.326  0.5055  0.2705 -0.2160
  289CHL    CL1 1623   3.694   3.407   2.355 -0.0516  0.3751 -0.0697
  289CHL    CL2 1624   3.440   3.450   2.492 -0.0555  0.1041  0.2617
  289CHL      H 1625   3.463   3.365   2.274 -0.5419  1.9070 -1.8812
  290CHL     CL 1626   3.161   2.536   3.420  0.0952 -0.3789 -0.1171
  290CHL      C 1627   3.206   2.673   3.523 -0.8891  0.9719 -0.5555
  290CHL    CL1 1628   3.342   2.609   3.638  0.0221  0.1567 -0.4021
  290CHL    CL2 1629   3.263   2.799   3.414  0.2288  0.1802  0.8008
  290CHL      H 1630   3.122   2.708   3.584 -0.1709 -2.0206  2.4072
  291CHL     CL 1631   0.776   0.804   2.280 -0.2711  0.5277  0.0374
  291CHL      C 1632   0.890   0.875   2.400 -0.2729  0.2197 -0.2195
  291CHL    CL1 1633   0.990   1.010   2.336  0.1431  0.0941 -0.1214
  291CHL    CL2 1634   0.789   0.943   2.543 -0.2238 -0.1194  0.1959
  291CHL      H 1635   0.961   0.799   2.434 -0.3271 -0.3786 -1.3860
  292CHL     CL 1636   2.244   1.059   0.438  0.4624 -0.1702  0.0483
  292CHL      C 1637   2.090   1.002   0.534 -0.1713  0.4463  0.0247
  292CHL    CL1 1638   2.142   0.845   0.618  0.2439  0.1640 -0.3722
  292CHL    CL2 1639   2.014   1.126   0.634  0.2900 -0.0600 -0.1373
  292CHL      H 1640   2.014   0.973   0.462  0.5278  0.3675 -0.6871
  293CHL     CL 1641   0.560   1.889   3.876  0.3073 -0.1543  0.3219
  293CHL      C 1642   0.440   2.011   3.832  0.5824  0.1894  0.1175
  293CHL    CL1 1643   0.511   2.172   3.796  0.2845  0.5802  0.1920
  293CHL    CL2 1644   0.363   1.955   3.688 -0.2175  0.3228  0.0314
  293CHL      H 1645   0.359   2.029   3.904 -1.3979 -3.5287 -0.9112
  294CHL     CL 1646   2.449   0.836   1.148  0.1946 -0.2803 -0.2422
  294CHL      C 1647   2.478   0.865   0.984 -0.1460 -0.3500  0.6365
  294CHL    CL1 1648   2.324   0.910   0.907  0.2554 -0.0330  0.3393
  294CHL    CL2 1649   2.589   0.997   0.996 -0.1195 -0.3095  0.0803
  294CHL      H 1650   2.530   0.778   0.943 -0.0576 -0.6408  1.3452
  295CHL     CL 1651   0.636   3.603   3.034  0.3196 -0.2785 -0.0166
  295CHL      C 1652   0.810   3.561   3.031  0.3894  0.3104 -0.1805
  295CHL    CL1 1653   0.909   3.672   2.928 -0.2861  0.2498 -0.3011
  295CHL    CL2 1654   0.866   3.542   3.205 -0.3027 -0.1527 -0.0306
  295CHL      H 1655   0.828   3.461   2.990  0.6601  0.8793 -1.5063
  296CHL     CL 1656   0.576   1.059   1.692 -0.0212  0.3171  0.0935
  296CHL      C 1657   0.657   1.001   1.842 -0.2140 -0.4112  1.0402
  296CHL    CL1 1658   0.620   0.815   1.859  0.5471  0.5863 -0.0602
  296CHL    CL2 1659   0.834   1.018   1.833  0.2532 -0.0949  0.2622
  296CHL      H 1660   0.628   1.056   1.932  0.7212 -0.8787  1.6427
  297CHL     CL 1661   0.727   1.323   1.974 -0.0184  0.5371 -0.2484
  297CHL      C 1662   0.879   1.350   1.902 -0.1288 -0.2601 -0.5361
  297CHL    CL1 1663   0.895   1.522   1.844  0.0228 -0.1421  0.1970
  297CHL    CL2 1664   1.007   1.309   2.023 -0.1752  0.1933  0.2143
  297CHL      H 1665   0.889   1.290   1.811 -0.9363 -0.9036 -0.2108
  298CHL     CL 1666   2.269   3.885   3.990 -0.2777 -0.0102 -0.2756
  298CHL      C 1667   2.265   3.707   4.043 -0.2234 -0.0848 -0.3885
  298CHL    CL1 1668   2.428   3.633   4.042  0.4168 -0.0789 -0.3809
  298CHL    CL2 1669   2.174   3.674   4.198 -0.2182 -0.0066  0.0384
  298CHL      H 1670   2.208   3.662   3.961  0.3454 -0.0153 -0.8316
  299CHL     CL 1671   0.119   3.529   2.625  0.4152 -0.2034 -0.0291
  299CHL      C 1672  -0.033   3.514   2.708 -0.1773  0.7120  0.5601
  299CHL    CL1 1673  -0.166   3.455   2.605  0.2372 -0.3103  0.1001
  299CHL    CL2 1674  -0.022   3.410   2.855  0.0435  0.1997 -0.1797
  299CHL      H 1675  -0.049   3.619   2.734  0.3474  0.9847 -0.1830
  300CHL     CL 1676   2.733   2.004   0.744 -0.0654 -0.2379  0.3426
  300CHL      C 1677   2.726   1.925   0.903  0.3048 -0.5014  0.7588
  300CHL    CL1 1678   2.686   1.748   0.868  0.0345 -0.3703  0.0998
  300CHL    CL2 1679   2.886   1.927   0.979  0.3523 -0.3507  0.0460
  300CHL      H 1680   2.654   1.961   0.977  1.9848  0.5427  1.9658
  301CHL     CL 1681   0.763   2.669   3.647 -0.1250  0.4024  0.0919
  301CHL      C 1682   0.656   2.533   3.577 -0.1116  0.5574  0.4201
  301CHL    CL1 1683   0.732   2.387   3.616 -0.2635  0.1138  0.3104
  301CHL    CL2 1684   0.492   2.527   3.650  0.3470  0.1944  0.2506
  301CHL      H 1685   0.652   2.556   3.470  0.3679 -0.7775  0.0949
  302CHL     CL 1686   1.848   1.424   1.911  0.2350 -0.0874 -0.0131
  302CHL      C 1687   2.005   1.349   1.873  0.7336  0.0729  0.2016
  302CHL    CL1 1688   2.145   1.462   1.878  0.4853 -0.3117 -0.1657
  302CHL    CL2 1689   2.023   1.207   1.988 -0.2205  0.0526  0.2553
  302CHL      H 1690   1.996   1.320   1.768 -0.3427 -0.8347  0.5182
  303CHL     CL 1691   3.050   1.475   4.293 -0.0232 -0.0810 -0.1197
  303CHL      C 1692   3.083   1.628   4.374  0.5768  0.2915  0.2028
  303CHL    CL1 1693   3.002   1.622   4.538 -0.2028 -0.0392  0.0258
  303CHL    CL2 1694   3.254   1.670   4.379 -0.1618  0.0581 -0.0081
  303CHL      H 1695   3.025   1.705   4.323 -2.1714 -1.7058  0.0579
  304CHL     CL 1696   4.287   2.092   4.144 -0.0288 -0.0852 -0.1293
  304CHL      C 1697   4.408   2.139   4.265 -0.7596 -0.0070  0.0301
  304CHL    CL1 1698   4.321   2.123   4.425  0.1378 -0.0207  0.2479
  304CHL    CL2 1699   4.544   2.029   4.252  0.0527  0.0284  0.3120
  304CHL      H 1700   4.438   2.242   4.244 -0.8329  0.2834  1.3113
  305CHL     CL 1701   0.341   1.552   3.610 -0.0699 -0.3494  0.0545
  305CHL      C 1702   0.513   1.559   3.576 -0.2185 -0.0680 -0.0580
  305CHL    CL1 1703   0.599   1.463   3.701  0.4443  0.4052  0.3573
  305CHL    CL2 1704   0.534   1.490   3.409  0.2631  0.1525  0.6030
  305CHL      H 1705   0.546   1.662   3.562  0.3234 -0.5546 -2.8362
  306CHL     CL 1706   0.883   1.781   1.051 -0.0007  0.0569 -0.2099
  306CHL      C 1707   0.826   1.792   0.876 -0.3279  0.3680  1.1622
  306CHL    CL1 1708   0.669   1.707   0.857  0.1032 -0.0083  0.2229
  306CHL    CL2 1709   0.810   1.961   0.835 -0.4617 -0.4947  0.2051
  306CHL      H 1710   0.903   1.743   0.816  0.6678  1.2235  1.7070
  307CHL     CL 1711   1.973   3.960   0.599 -0.2119 -0.0581  0.2384
  307CHL      C 1712   1.831   3.887   0.679 -0.3024 -0.4669 -0.1159
  307CHL    CL1 1713   1.872   3.770   0.804  0.0765 -0.1491  0.1817
  307CHL    CL2 1714   1.720   4.007   0.755 -0.0240  0.1329 -0.1097
  307CHL      H 1715   1.774   3.834   0.602 -1.1495 -0.1837  0.3064
  308CHL     CL 1716   0.876   0.010   2.324 -0.0803 -0.3278 -0.2920
  308CHL      C 1717   0.933   0.030   2.156  0.5037 -0.1321 -0.0048
  308CHL    CL1 1718   0.795   0.019   2.039 -0.0029 -0.0229  0.4571
  308CHL    CL2 1719   1.004   0.196   2.134 -0.4361 -0.0357 -0.1446
  308CHL      H 1720   0.994  -0.055   2.123  0.2103  0.0985 -1.1952
  309CHL     CL 1721   2.210   2.305   2.322 -0.0028 -0.0933 -0.4523
  309CHL      C 1722   2.339   2.189   2.327 -0.2018 -0.6651 -0.1883
  309CHL    CL1 1723   2.292   2.052   2.234  0.0743 -0.2889 -0.1132
  309CHL    CL2 1724   2.358   2.143   2.503  0.2067 -0.1789 -0.1592
  309CHL      H 1725   2.431   2.239   2.295 -1.4462  1.3868 -0.7605
  310CHL     CL 1726   2.627   2.769   3.698 -0.0102  0.1031 -0.3601
  310CHL      C 1727   2.782   2.727   3.755 -0.1504 -0.3789 -0.3035
  310CHL    CL1 1728   2.856   2.590   3.665 -0.2279  0.1573 -0.4063
  310CHL    CL2 1729   2.901   2.860   3.751  0.0151  0.0649 -0.1437
  310CHL      H 1730   2.770   2.703   3.862 -0.3358 -0.2008 -0.2835
  311CHL     CL 1731   3.381   0.103   2.988 -0.1259 -0.1223 -0.1551
  311CHL      C 1732   3.527   0.222   2.982  0.6906  0.3677 -0.3160
  311CHL    CL1 1733   3.470   0.380   2.921  0.4451 -0.0837 -0.2226
  311CHL    CL2 1734   3.601   0.245   3.143  0.1083  0.5170 -0.0410
  311CHL      H 1735   3.595   0.170   2.915  1.4203  0.2384  0.5030
  312CHL     CL 1736   3.193   0.591   2.729  0.2512 -0.2106 -0.4330
  312CHL      C 1737   3.216   0.760   2.787 -0.0070 -0.6323  0.0544
  312CHL    CL1 1738   3.108   0.879   2.718 -0.1066 -0.3020  0.0860
  312CHL    CL2 1739   3.214   0.776   2.975 -0.6127  0.3818 -0.0197
  312CHL      H 1740   3.319   0.784   2.761  1.2901 -2.7584  2.7054
  313CHL     CL 1741   2.676   2.675   2.720 -0.2694  0.4898  0.0485
  313CHL      C 1742   2.642   2.518   2.644  0.3862 -0.3042  0.4672
  313CHL    CL1 1743   2.601   2.407   2.780 -0.3700 -0.0742  0.0762
  313CHL    CL2 1744   2.500   2.538   2.526  0.1085 -0.3425  0.0169
  313CHL      H 1745   2.716   2.470   2.580  0.6168 -0.4008  0.8042
  314CHL     CL 1746   1.807   1.337   4.079  0.0303 -0.0792  0.1641
  314CHL      C 1747   1.936   1.318   4.198  0.0101  0.2833 -0.2385
  314CHL    CL1 1748   2.027   1.162   4.168 -0.0939  0.4924 -0.6176
  314CHL    CL2 1749   2.042   1.466   4.192  0.0762 -0.1356 -0.6464
  314CHL      H 1750   1.889   1.319   4.297 -0.3549  0.7009 -0.4112
  315CHL     CL 1751   1.468   0.866   0.061  0.0459 -0.1974  0.2887
  315CHL      C 1752   1.617   0.935   0.126 -0.7889 -0.7000 -0.5100
  315CHL    CL1 1753   1.676   0.850   0.273  0.1978 -0.2741 -0.2510
  315CHL    CL2 1754   1.748   0.909  -0.003  0.1100 -0.2982 -0.0555
  315CHL      H 1755   1.620   1.040   0.158  0.3568 -0.5702 -0.9619
  316CHL     CL 1756   0.436   1.392   2.775 -0.5500  0.4711  0.0056
  316CHL      C 1757   0.557   1.448   2.895 -0.0976 -0.3804 -0.3615
  316CHL    CL1 1758   0.519   1.418   3.070 -0.2072  0.2256 -0.1622
  316CHL    CL2 1759   0.709   1.382   2.860 -0.1627 -0.3112 -0.0409
  316CHL      H 1760   0.554   1.557   2.880  0.9672 -0.4127 -0.8914
  317CHL     CL 1761   3.397   3.895   0.359 -0.1991  0.1690  0.2661
  317CHL      C 1762   3.496   3.755   0.388 -1.1687  0.0379  0.3225
  317CHL    CL1 1763   3.663   3.778   0.314  0.1361 -0.0345  0.1377
  317CHL    CL2 1764   3.516   3.736   0.573  0.1344 -0.0519  0.2568
  317CHL      H 1765   3.444   3.672   0.338  0.7665 -1.3602  0.5168
  318CHL     CL 1766   1.634   3.022   4.010  0.1952  0.1346  0.2384
  318CHL      C 1767   1.606   3.197   3.999 -0.0901 -0.1748  0.0168
  318CHL    CL1 1768   1.460   3.249   4.087 -0.1876 -0.1074 -0.3822
  318CHL    CL2 1769   1.740   3.296   4.067 -0.0824 -0.3509  0.2749
  318CHL      H 1770   1.585   3.219   3.894  1.4953 -2.7434 -0.9387
  319CHL     CL 1771   0.630   2.421   2.526 -0.0715 -0.4274  0.3727
  319CHL      C 1772   0.514   2.519   2.434  0.3072  0.2252 -0.5608
  319CHL    CL1 1773   0.500   2.683   2.509 -0.1172  0.0625  0.1410
  319CHL    CL2 1774   0.544   2.529   2.252 -0.0429 -0.1193 -0.0271
  319CHL      H 1775   0.418   2.468   2.442  0.2096  0.6348  1.0657
  320CHL     CL 1776   1.468   0.996   2.282  0.3223 -0.1834  0.4337
  320CHL      C 1777   1.623   0.995   2.392 -0.9635  0.6886 -0.5837
  320CHL    CL1 1778   1.747   1.104   2.317  0.3757 -0.3058  0.0285
  320CHL    CL2 1779   1.585   1.038   2.549  0.4336 -0.3663 -0.3632
  320CHL      H 1780   1.650   0.889   2.392 -1.7769  0.4617 -1.7161
  321CHL     CL 1781   1.160   1.786   2.420  0.0575  0.0764  0.0419
  321CHL      C 1782   1.087   1.633   2.366 -0.1258  0.1256  0.1882
  321CHL    CL1 1783   1.150   1.593   2.199 -0.4078  0.5532 -0.3951
  321CHL    CL2 1784   1.111   1.496   2.488  0.1730 -0.1025 -0.1714
  321CHL      H 1785   0.978   1.647   2.371  0.1787  2.5860  0.8176
  322CHL     CL 1786   3.415   2.755   2.097  0.0725 -0.2359 -0.5239
  322CHL      C 1787   3.362   2.925   2.079 -0.0510 -0.0913  0.3801
  322CHL    CL1 1788   3.198   2.932   2.004  0.3999  0.3746  0.1963
  322CHL    CL2 1789   3.357   2.997   2.247  0.3730 -0.3517  0.2472
  322CHL      H 1790   3.429   2.968   2.003  0.4878 -0.3658  0.6912
  323CHL     CL 1791   2.229   1.834   0.861 -0.0401 -0.2182 -0.1709
  323CHL      C 1792   2.176   1.739   1.000 -0.3902  0.4352 -0.3437
  323CHL    CL1 1793   2.213   1.811   1.151  0.1285  0.8081 -0.0872
  323CHL    CL2 1794   2.013   1.671   0.989  0.1047  0.2982  0.0999
  323CHL      H 1795   2.246   1.654   1.001 -0.5138  0.3331 -0.3644
  324CHL     CL 1796   3.022   1.112   2.994 -0.1125  0.3399 -0.3298
  324CHL      C 1797   2.881   1.119   2.884 -0.0834 -0.1575 -0.1884
  324CHL    CL1 1798   2.725   1.132   2.994 -0.0138  0.2727 -0.0543
  324CHL    CL2 1799   2.894   1.253   2.761  0.3475  0.6309 -0.1979
  324CHL      H 1800   2.880   1.021   2.836  3.1724 -0.8331  0.8579
  325CHL     CL 1801   2.896   0.636   2.922  0.0131  0.0106  0.1260
  325CHL      C 1802   2.753   0.738   2.966 -0.1073  0.3901 -0.8366
  325CHL    CL1 1803   2.649   0.760   2.832 -0.2276 -0.0423  0.1993
  325CHL    CL2 1804   2.654   0.650   3.085 -0.2782 -0.0253 -0.1290
  325CHL      H 1805   2.786   0.837   2.997  1.1349  0.0882 -1.1547
  326CHL     CL 1806   3.711   3.665   0.878 -0.2505  0.0940  0.1947
  326CHL      C 1807   3.823   3.555   0.965 -0.7196  1.1377 -0.5525
  326CHL    CL1 1808   3.860   3.617   1.126  0.1475  0.1823  0.0340
  326CHL    CL2 1809   3.759   3.394   0.983 -0.2784 -0.0612  0.2119
  326CHL      H 1810   3.914   3.546   0.906  0.9604 -1.9745  2.1671
  327CHL     CL 1811   0.146   2.464   3.724  0.2789  0.2642 -0.1880
  327CHL      C 1812   0.055   2.341   3.827  0.0896 -0.1610  0.8083
  327CHL    CL1 1813   0.149   2.182   3.846  0.0530 -0.3704  0.2375
  327CHL    CL2 1814   0.019   2.406   3.986  0.1783 -0.4568  0.0855
  327CHL      H 1815  -0.039   2.310   3.779 -0.1748  3.0560 -0.9922
  328CHL     CL 1816   2.884   2.646   0.407 -0.2666  0.3621 -0.0205
  328CHL      C 1817   3.006   2.518   0.446  0.2439  0.7287  0.0018
  328CHL    CL1 1818   2.991   2.370   0.334  0.0041  0.2354  0.0973
  328CHL    CL2 1819   3.169   2.584   0.438 -0.2332 -0.3028 -0.2696
  328CHL      H 1820   2.982   2.492   0.549  2.2069 -1.8279 -0.0789
  329CHL     CL 1821   1.656   0.112   1.316 -0.5021  0.1181 -0.1218
  329CHL      C 1822   1.474   0.104   1.312 -0.0377 -0.2518  0.4364
  329CHL    CL1 1823   1.402   0.162   1.156 -0.0128  0.4660  0.1510
  329CHL    CL2 1824   1.422  -0.064   1.346 -0.0380 -0.2593  0.0374
  329CHL      H 1825   1.434   0.165   1.394 -1.3495 -2.9860  1.9702
  330CHL     CL 1826   0.424   2.291   3.168  0.0081  0.1208  0.2954
  330CHL      C 1827   0.412   2.176   3.317  0.2161 -0.3137  0.3302
  330CHL    CL1 1828   0.582   2.122   3.365  0.1082 -0.1136  0.7094
  330CHL    CL2 1829   0.341   2.274   3.446  0.0035 -0.0217  0.1070
  330CHL      H 1830   0.336   2.098   3.311 -1.8627  1.4238  2.1339
  331CHL     CL 1831   0.859   3.908   3.230 -0.3350  0.0965  0.2083
  331CHL      C 1832   0.758   4.053   3.198  0.6621 -0.6077  0.4521
  331CHL    CL1 1833   0.819   4.136   3.047 -0.1817 -0.0539 -0.0693
  331CHL    CL2 1834   0.580   4.004   3.174  0.0233 -0.0931  0.1315
  331CHL      H 1835   0.761   4.116   3.288  1.4203 -1.6313  1.1564
  332CHL     CL 1836   0.717   3.681   1.769 -0.4449 -0.0511 -0.3682
  332CHL      C 1837   0.794   3.719   1.605 -0.1030 -0.7255 -0.5592
  332CHL    CL1 1838   0.760   3.601   1.480  0.3886  0.1300  0.0294
  332CHL    CL2 1839   0.756   3.891   1.557 -0.3392 -0.0272  0.3409
  332CHL      H 1840   0.903   3.708   1.613 -0.2084 -3.0382 -1.5688
  333CHL     CL 1841   2.084   2.493   2.037 -0.3981 -0.0749  0.1521
  333CHL      C 1842   1.938   2.583   2.111 -0.1360 -0.2537  0.0644
  333CHL    CL1 1843   1.904   2.740   2.014 -0.3815  0.2944 -0.3514
  333CHL    CL2 1844   1.799   2.473   2.096 -0.2671 -0.0612  0.0312
  333CHL      H 1845   1.955   2.620   2.213 -1.3389 -1.4492  0.7261
  334CHL     CL 1846   3.797   2.496   0.233 -0.0645  0.2982 -0.2700
  334CHL      C 1847   3.873   2.398   0.360  0.7398 -0.5537 -0.1589
  334CHL    CL1 1848   3.741   2.291   0.443 -0.2263 -0.1423  0.5512
  334CHL    CL2 1849   4.001   2.293   0.286  0.0727  0.1827 -0.2096
  334CHL      H 1850   3.931   2.463   0.427  0.3381  0.5374 -0.8500
  335CHL     CL 1851   0.457   3.707   3.657 -0.1016 -0.0351  0.1308
  335CHL      C 1852   0.607   3.600   3.644 -0.6737 -0.1497  0.4551
  335CHL    CL1 1853   0.556   3.444   3.572 -0.1367  0.0350  0.1059
  335CHL    CL2 1854   0.738   3.661   3.528 -0.0031  0.0047 -0.1126
  335CHL      H 1855   0.654   3.583   3.741 -2.4289 -1.6912  1.1134
  336CHL     CL 1856   0.876   3.880   0.966 -0.2056  0.1892 -0.0609
  336CHL      C 1857   0.937   3.766   1.088  0.7457 -0.4092 -0.1399
  336CHL    CL1 1858   1.103   3.729   1.055 -0.0471  0.3571  0.0395
  336CHL    CL2 1859   0.927   3.840   1.260 -0.2229 -0.1807 -0.4835
  336CHL      H 1860   0.884   3.670   1.092 -0.5429  0.2419 -1.0578
  337CHL     CL 1861   1.268   1.485   0.912 -0.0231 -0.5842  0.1687
  337CHL      C 1862   1.281   1.642   1.014 -0.4048 -0.1403 -0.3964
  337CHL    CL1 1863   1.269   1.588   1.188 -0.0540  0.5203 -0.1533
  337CHL    CL2 1864   1.438   1.734   0.976 -0.2255 -0.6766 -0.1598
  337CHL      H 1865   1.192   1.699   0.988  0.8869  1.7771 -0.8463
  338CHL     CL 1866   3.322   3.644   0.101 -0.2083 -0.1466  0.1165
  338CHL      C 1867   3.395   3.594  -0.063  0.0242 -0.3425  0.2487
  338CHL    CL1 1868   3.508   3.465  -0.049  0.0773  0.4344 -0.1242
  338CHL    CL2 1869   3.262   3.562  -0.181  0.3482  0.1750 -0.1501
  338CHL      H 1870   3.456   3.677  -0.101 -0.2958 -0.4176 -0.4377
  339CHL     CL 1871   3.554   2.764   1.343 -0.3858 -0.1785 -0.1963
  339CHL      C 1872   3.603   2.871   1.201  0.1528 -0.1484 -0.2531
  339CHL    CL1 1873   3.471   2.988   1.172  0.4150  0.4689  0.4453
  339CHL    CL2 1874   3.738   2.977   1.245 -0.1292  0.0506 -0.1948
  339CHL      H 1875   3.624   2.818   1.108 -0.3320  0.1192 -0.5196
  340CHL     CL 1876   0.898   1.795   2.038  0.0218  0.1241 -0.3398
  340CHL      C 1877   0.784   1.860   2.166 -1.1891  0.0365 -0.7329
  340CHL    CL1 1878   0.720   1.711   2.262 -0.0401  0.1325  0.1521
  340CHL    CL2 1879   0.876   1.943   2.280 -0.1088  0.4461  0.0196
  340CHL      H 1880   0.701   1.919   2.126 -2.2630 -0.2208  0.9713
  341CHL     CL 1881   0.356   2.604   4.009 -0.1432 -0.2000  0.1309
  341CHL      C 1882   0.255   2.697   4.125 -0.7240  0.4624 -0.7695
  341CHL    CL1 1883   0.355   2.816   4.214  0.0935  0.2085 -0.4341
  341CHL    CL2 1884   0.139   2.785   4.045 -0.0460 -0.0115  0.2510
  341CHL      H 1885   0.204   2.627   4.191  0.5725 -0.2330 -0.4694
  342CHL     CL 1886   1.451   2.756   3.851 -0.7285  0.1808 -0.5158
  342CHL      C 1887   1.584   2.699   3.743  0.9711  0.0341 -0.4783
  342CHL    CL1 1888   1.520   2.584   3.615 -0.6894 -0.1948 -0.0033
  342CHL    CL2 1889   1.635   2.845   3.653  0.2016  0.5709 -0.3008
  342CHL      H 1890   1.669   2.665   3.803  1.2203  2.3078  0.5865
  343CHL     CL 1891   0.954   2.572   2.130  0.4991  0.2409  0.1365
  343CHL      C 1892   0.900   2.406   2.170 -0.2448 -0.3621 -0.2454
  343CHL    CL1 1893   0.925   2.294   2.030  0.3477 -0.0074 -0.4028
  343CHL    CL2 1894   0.967   2.333   2.317 -0.2308  0.0262 -0.0730
  343CHL      H 1895   0.793   2.428   2.178  0.0317  0.6690  0.8485
  344CHL     CL 1896   2.818   0.844   0.608  0.4801  0.3297  0.0548
  344CHL      C 1897   2.658   0.799   0.538  0.0969 -0.1441 -0.5163
  344CHL    CL1 1898   2.571   0.695   0.646  0.0424  0.1293  0.3511
  344CHL    CL2 1899   2.567   0.949   0.510  0.2500 -0.0366  0.2659
  344CHL      H 1900   2.679   0.750   0.442 -0.7467 -1.8401  0.1250
  345CHL     CL 1901   0.259   1.670   2.390  0.0122  0.5329  0.0606
  345CHL      C 1902   0.263   1.519   2.304  0.1830  0.1664  0.0415
  345CHL    CL1 1903   0.108   1.479   2.225 -0.2878 -0.2734 -0.4763
  345CHL    CL2 1904   0.396   1.500   2.188 -0.1737  0.4858  0.4630
  345CHL      H 1905   0.288   1.445   2.380  1.7025  0.4714 -0.1310
  346CHL     CL 1906   2.948   0.036   4.044 -0.4060  0.0124 -0.1466
  346CHL      C 1907   2.789  -0.055   4.007 -0.9017  0.2217 -0.2681
  346CHL    CL1 1908   2.650  -0.009   4.116  0.1309 -0.1862  0.3817
  346CHL    CL2 1909   2.757  -0.027   3.829  0.0971  0.3837 -0.0308
  346CHL      H 1910   2.808  -0.163   4.018  0.3060  0.4165 -0.3428
  347CHL     CL 1911   0.227   4.389   0.811 -0.4203 -0.2519 -0.1918
  347CHL      C 1912   0.398   4.324   0.840 -0.3895  0.2600  0.7813
  347CHL    CL1 1913   0.399   4.148   0.871  0.1587 -0.0635 -0.3264
  347CHL    CL2 1914   0.508   4.367   0.696  0.0016  0.2498  0.3103
  347CHL      H 1915   0.432   4.362   0.937  1.4833  0.5580  0.0384
  348CHL     CL 1916   1.110   3.304   4.081 -0.3537 -0.0015  0.1545
  348CHL      C 1917   1.042   3.166   4.007  0.0778 -0.0900  0.6253
  348CHL    CL1 1918   0.928   3.231   3.879  0.1424 -0.0347  0.0845
  348CHL    CL2 1919   1.162   3.049   3.946 -0.1164  0.2103 -0.3290
  348CHL      H 1920   0.981   3.118   4.084 -0.9754 -0.1930 -0.2504
  349CHL     CL 1921   2.783   2.951   2.133  0.3770 -0.0706  0.4586
  349CHL      C 1922   2.700   2.910   2.291  1.2034  0.2410  0.7985
  349CHL    CL1 1923   2.656   2.727   2.264 -0.3511 -0.0319 -0.0061
  349CHL    CL2 1924   2.817   2.916   2.426  0.1491  0.1979 -0.3358
  349CHL      H 1925   2.606   2.961   2.315  1.0654  0.7269 -0.6748
  350CHL     CL 1926   1.501   1.888   2.690 -0.1270 -0.0689 -0.3757
  350CHL      C 1927   1.674   1.927   2.681  0.1482  0.0221  0.3801
  350CHL    CL1 1928   1.763   1.929   2.844 -0.1429 -0.4067  0.0960
  350CHL    CL2 1929   1.743   1.799   2.567  0.1195  0.2553  0.2085
  350CHL      H 1930   1.682   2.026   2.635 -0.2985  0.3282  0.9461
  351CHL     CL 1931   1.349   2.845   3.215 -0.1242  0.4089 -0.4212
  351CHL      C 1932   1.503   2.759   3.278  0.5056 -0.3231 -0.0741
  351CHL    CL1 1933   1.522   2.616   3.174  0.2108 -0.2161 -0.1331
  351CHL    CL2 1934   1.647   2.867   3.267 -0.4855 -0.0256  0.2114
  351CHL      H 1935   1.487   2.729   3.382 -0.4144  2.2867  0.6135
  352CHL     CL 1936   1.735   3.879   1.418  0.1060 -0.0752 -0.0070
  352CHL      C 1937   1.704   3.955   1.580 -0.0106 -0.2972 -0.1721
  352CHL    CL1 1938   1.863   4.014   1.638 -0.0250  0.2431 -0.0125
  352CHL    CL2 1939   1.603   4.108   1.572  0.0537  0.1474  0.0824
  352CHL      H 1940   1.656   3.885   1.649 -0.7250  0.2745 -0.0688
  353CHL     CL 1941   2.846   4.279   1.886 -0.0353 -0.1630  0.0465
  353CHL      C 1942   2.760   4.434   1.914  0.2760 -0.1401  0.0607
  353CHL    CL1 1943   2.758   4.467   2.095  0.2032 -0.2810 -0.0475
  353CHL    CL2 1944   2.838   4.572   1.821 -0.2688  0.3783  0.0033
  353CHL      H 1945   2.655   4.421   1.885 -0.3657  1.0563  1.7312
  354CHL     CL 1946   3.466   1.375   2.982 -0.1360 -0.4630  0.1410
  354CHL      C 1947   3.401   1.420   3.146 -0.0759 -0.6011 -0.8280
  354CHL    CL1 1948   3.367   1.601   3.169  0.5000  0.0341 -0.2165
  354CHL    CL2 1949   3.251   1.336   3.190 -0.1139  0.3794 -0.6593
  354CHL      H 1950   3.483   1.397   3.215  0.5313 -0.4552 -1.4744
  355CHL     CL 1951   1.293   2.577   0.141 -0.0461  0.2004  0.0008
  355CHL      C 1952   1.142   2.483   0.177 -0.2520  0.9008 -0.4720
  355CHL    CL1 1953   1.191   2.318   0.136 -0.1174  0.1729  0.0581
  355CHL    CL2 1954   1.109   2.481   0.350  0.0572  0.2322 -0.0324
  355CHL      H 1955   1.060   2.510   0.110  0.8061  1.0556 -1.7440
  356CHL     CL 1956   2.514   3.785   0.427 -0.2262  0.6145  0.0073
  356CHL      C 1957   2.575   3.617   0.379  0.2967  0.7522  0.3672
  356CHL    CL1 1958   2.692   3.550   0.481 -0.1002 -0.3679  0.0643
  356CHL    CL2 1959   2.441   3.496   0.364  0.0392  0.4636 -0.0130
  356CHL      H 1960   2.614   3.639   0.280  1.0794 -0.6892  0.3357
  357CHL     CL 1961   3.989   3.027   3.310  0.3927 -0.4566  0.2193
  357CHL      C 1962   3.896   3.162   3.251  0.0005  0.0299 -0.2359
  357CHL    CL1 1963   3.729   3.117   3.264 -0.0195  0.4651  0.0133
  357CHL    CL2 1964   3.928   3.304   3.347 -0.2469  0.1371  0.2438
  357CHL      H 1965   3.928   3.178   3.147  2.2579 -1.4327  0.1622
  358CHL     CL 1966   0.077   0.708   2.961  0.1383  0.3727 -0.1396
  358CHL      C 1967   0.062   0.557   2.875  0.3207 -0.6422  0.0445
  358CHL    CL1 1968   0.099   0.563   2.697  0.1031  0.1562  0.1908
  358CHL    CL2 1969   0.185   0.443   2.953  0.1486 -0.8315 -0.4673
  358CHL      H 1970  -0.041   0.522   2.884  0.2176 -0.7963 -1.4204
  359CHL     CL 1971   3.574   1.792   3.938 -0.1520 -0.3799 -0.3565
  359CHL      C 1972   3.394   1.773   3.957 -0.5276  0.6332 -1.2364
  359CHL    CL1 1973   3.345   1.863   4.110 -0.0231 -0.1591 -0.1410
  359CHL    CL2 1974   3.300   1.834   3.820  0.5613  0.1195 -0.6326
  359CHL      H 1975   3.374   1.666   3.969  0.4128  0.7457  3.9382
  360CHL     CL 1976   1.907   3.209   1.482 -0.4424  0.1018  0.2500
  360CHL      C 1977   1.922   3.243   1.297  0.0575 -0.1376  0.8709
  360CHL    CL1 1978   1.823   3.394   1.271  0.1766  0.2874 -0.2586
  360CHL    CL2 1979   2.099   3.272   1.258  0.2944 -0.4334 -0.1693
  360CHL      H 1980   1.887   3.162   1.232 -1.3973  2.0167 -1.2087
  361CHL     CL 1981   2.003   3.586   3.245 -0.0650  0.2222  0.1757
  361CHL      C 1982   2.056   3.454   3.359  0.8443 -0.5072  0.2056
  361CHL    CL1 1983   2.035   3.518   3.522  0.0150 -0.0620  0.1262
  361CHL    CL2 1984   1.950   3.307   3.339 -0.4636  0.0729  0.2033
  361CHL      H 1985   2.163   3.444   3.339  1.2279  2.5292  0.3896
  362CHL     CL 1986   1.994   0.338   4.007  0.0552  0.1181  0.0664
  362CHL      C 1987   2.157   0.359   4.063 -0.0718  0.8448  0.1226
  362CHL    CL1 1988   2.199   0.528   4.073  0.2245  0.1703  0.4447
  362CHL    CL2 1989   2.190   0.271   4.214 -0.4097 -0.2140 -0.3681
  362CHL      H 1990   2.222   0.321   3.984 -0.3091  2.6849 -1.0268
  363CHL     CL 1991   0.324   1.036   2.640 -0.1607 -0.2217  0.0839
  363CHL      C 1992   0.250   1.002   2.477  0.0027 -0.5747 -0.0005
  363CHL    CL1 1993   0.365   0.890   2.390 -0.0038 -0.0063 -0.1971
  363CHL    CL2 1994   0.085   0.938   2.494  0.3519 -0.1509  0.3946
  363CHL      H 1995   0.240   1.093   2.417 -0.6344 -0.5953  0.0709
  364CHL     CL 1996   3.677   1.890   0.519  0.1533  0.0809  0.1365
  364CHL      C 1997   3.540   1.853   0.629  0.5464  0.4765  0.1122
  364CHL    CL1 1998   3.576   1.717   0.737 -0.6125  0.1812 -0.6564
  364CHL    CL2 1999   3.493   2.006   0.726 -0.4754  0.0637 -0.1250
  364CHL      H 2000   3.461   1.816   0.562  0.7410  1.8945 -0.9385
  365CHL     CL 2001   2.013   1.202   1.458 -0.0855  0.2700 -0.2728
  365CHL      C 2002   1.840   1.276   1.461 -0.8613  0.2740 -0.0199
  365CHL    CL1 2003   1.734   1.184   1.350  0.0270 -0.0678 -0.1694
  365CHL    CL2 2004   1.779   1.269   1.622 -0.1671  0.0766  0.3033
  365CHL      H 2005   1.844   1.380   1.427 -3.3297  1.2137  2.1976
  366CHL     CL 2006   3.998   1.952   1.276 -0.1818  0.0681  0.0956
  366CHL      C 2007   4.017   1.925   1.447 -0.0277 -0.7990  0.1894
  366CHL    CL1 2008   3.961   1.763   1.492  0.2766  0.3481 -0.4289
  366CHL    CL2 2009   4.190   1.943   1.497  0.2146  0.1945  0.0551
  366CHL      H 2010   3.961   2.001   1.503  1.2544  0.2672  0.0731
  367CHL     CL 2011   2.857   4.061   4.251 -0.0822 -0.2663 -0.2066
  367CHL      C 2012   3.029   4.066   4.317  0.3914 -0.6976  0.4283
  367CHL    CL1 2013   3.068   3.903   4.373  0.2323 -0.0303  0.3372
  367CHL    CL2 2014   3.146   4.114   4.196 -0.4079  0.2663  0.2482
  367CHL      H 2015   3.039   4.139   4.398 -3.4740  0.0584  0.3770
  368CHL     CL 2016   3.345   2.073   3.549 -0.1885  0.2769  0.2632
  368CHL      C 2017   3.256   2.147   3.693  0.2450  0.1667 -0.1193
  368CHL    CL1 2018   3.336   2.305   3.719  0.2009 -0.0582 -0.0427
  368CHL    CL2 2019   3.077   2.180   3.650  0.1260 -0.0015  0.0929
  368CHL      H 2020   3.266   2.085   3.783 -1.0088  0.5741  0.3341
  369CHL     CL 2021   3.133   4.159   1.124 -0.2891 -0.2237 -0.0820
  369CHL      C 2022   3.129   3.996   1.200 -0.5046 -0.6207 -0.1193
  369CHL    CL1 2023   3.274   3.971   1.307  0.3617 -0.1382  0.0917
  369CHL    CL2 2024   2.980   4.003   1.310 -0.0612 -0.1151 -0.5251
  369CHL      H 2025   3.110   3.915   1.128 -0.6295  0.8920 -1.8509
  370CHL     CL 2026   0.150   0.447   2.326 -0.0500  0.1520 -0.0615
  370CHL      C 2027  -0.031   0.464   2.335  0.2314 -0.1531  0.6181
  370CHL    CL1 2028  -0.078   0.638   2.342 -0.1971  0.0818  0.1326
  370CHL    CL2 2029  -0.117   0.373   2.202 -0.0409  0.0773 -0.4129
  370CHL      H 2030  -0.073   0.425   2.429  1.0817  0.9737  1.4847
  371CHL     CL 2031   0.368   4.267   1.946  0.2192 -0.3789  0.1599
  371CHL      C 2032   0.208   4.326   1.896 -0.4178 -0.7346  0.0142
  371CHL    CL1 2033   0.221   4.412   1.745  0.1209  0.0116 -0.2869
  371CHL    CL2 2034   0.085   4.191   1.884  0.1736 -0.2030 -0.0559
  371CHL      H 2035   0.170   4.398   1.969  2.3920  1.0957 -0.1754
  372CHL     CL 2036   3.402   2.305   1.398 -0.3267  0.0550  0.4107
  372CHL      C 2037   3.284   2.330   1.267  0.2894  0.4479 -0.2920
  372CHL    CL1 2038   3.132   2.271   1.332  0.0055  0.3735  0.3914
  372CHL    CL2 2039   3.273   2.503   1.221  0.0008 -0.1630 -0.0018
  372CHL      H 2040   3.311   2.268   1.180 -1.3458 -0.6196 -0.0754
  373CHL     CL 2041   0.712   0.731   1.559  0.0607 -0.6157  0.3139
  373CHL      C 2042   0.892   0.709   1.518  0.1519 -0.4805 -0.1388
  373CHL    CL1 2043   0.920   0.578   1.403 -0.0289 -0.1064  0.2645
  373CHL    CL2 2044   0.960   0.859   1.457  0.0098  0.2237 -0.5255
  373CHL      H 2045   0.945   0.693   1.613 -1.3076 -0.3004  0.7475
  374CHL     CL 2046   0.893   4.044   4.327  0.0920  0.1198 -0.3190
  374CHL      C 2047   1.043   4.086   4.425 -0.1513  0.4900  0.2151
  374CHL    CL1 2048   1.143   3.934   4.428  0.1021 -0.0746  0.1751
  374CHL    CL2 2049   1.127   4.227   4.362  0.2570 -0.5172 -0.0934
  374CHL      H 2050   1.008   4.105   4.527  0.3326 -1.1719  0.7340
  375CHL     CL 2051   1.202   3.866   0.622  0.2534 -0.1712 -0.1204
  375CHL      C 2052   1.029   3.816   0.621  1.0734  0.1783 -0.3206
  375CHL    CL1 2053   0.969   3.767   0.454 -0.0250  0.0292  0.2972
  375CHL    CL2 2054   1.007   3.681   0.725  0.1534  0.2133  0.0403
  375CHL      H 2055   0.960   3.896   0.652 -0.8441 -0.9417 -1.5516
  376CHL     CL 2056   3.611   0.738   3.280 -0.0419  0.2174 -0.0633
  376CHL      C 2057   3.539   0.572   3.259  0.1725 -0.3042  0.5049
  376CHL    CL1 2058   3.588   0.472   3.401 -0.3193  0.2536  0.0518
  376CHL    CL2 2059   3.369   0.584   3.230  0.2567  0.3307 -0.1401
  376CHL      H 2060   3.582   0.524   3.171 -1.7002 -1.3762  0.1176
  377CHL     CL 2061   4.223   2.474   1.563  0.3012 -0.1484 -0.2040
  377CHL      C 2062   4.264   2.301   1.515 -0.3659  0.5152 -0.5417
  377CHL    CL1 2063   4.177   2.264   1.365  0.0327 -0.0361 -0.3008
  377CHL    CL2 2064   4.430   2.282   1.505 -0.1856 -0.0811  0.3586
  377CHL      H 2065   4.226   2.244   1.600  0.9432  1.4436  0.7240
  378CHL     CL 2066   0.873   1.497   1.285  0.3792  0.2541  0.0473
  378CHL      C 2067   0.728   1.421   1.368  0.6133 -0.1175 -0.0447
  378CHL    CL1 2068   0.687   1.270   1.280 -0.0187 -0.0289  0.3358
  378CHL    CL2 2069   0.753   1.382   1.544  0.2228 -0.4564  0.1735
  378CHL      H 2070   0.639   1.485   1.367  0.7981  0.1603  0.5522
  379CHL     CL 2071   0.183   4.213   1.290  0.4740  0.0579  0.4745
  379CHL      C 2072   0.125   4.265   1.446  0.1204 -0.0486 -0.3853
  379CHL    CL1 2073  -0.043   4.315   1.447 -0.3248 -0.2019 -0.4735
  379CHL    CL2 2074   0.147   4.131   1.558 -0.0169  0.1748  0.1076
  379CHL      H 2075   0.187   4.352   1.472 -1.0542  0.9558 -0.8700
  380CHL     CL 2076   2.956   1.579   1.087 -0.0628  0.0449 -0.4905
  380CHL      C 2077   2.903   1.422   1.156 -0.0282  0.5570  0.3480
  380CHL    CL1 2078   2.751   1.437   1.256  0.2726  0.0042  0.2470
  380CHL    CL2 2079   2.891   1.288   1.034 -0.2801  0.1522 -0.4114
  380CHL      H 2080   2.979   1.396   1.230  0.2448  0.6220  0.0893
  381CHL     CL 2081   1.045   3.121   0.673  0.4944 -0.2240 -0.1710
  381CHL      C 2082   0.957   2.993   0.589  0.9488  0.5079  0.1398
  381CHL    CL1 2083   0.929   3.040   0.414  0.1539 -0.5736  0.3470
  381CHL    CL2 2084   1.051   2.833   0.595 -0.2847 -0.4595  0.5951
  381CHL      H 2085   0.857   2.989   0.633  0.1567  3.1798 -1.1937
  382CHL     CL 2086   2.164   0.331   1.613  0.4671  0.3769 -0.3730
  382CHL      C 2087   2.076   0.348   1.782 -0.3946  0.2583  0.5159
  382CHL    CL1 2088   2.163   0.475   1.871  0.4258 -0.5608 -0.1588
  382CHL    CL2 2089   1.902   0.398   1.751 -0.0044 -0.1303 -0.0578
  382CHL      H 2090   2.084   0.255   1.839 -1.1932  0.7816  1.5072
  383CHL     CL 2091   2.446   1.109   2.733 -0.2785 -0.2686  0.3170
  383CHL      C 2092   2.450   1.176   2.563 -0.3093  0.1457  0.0364
  383CHL    CL1 2093   2.500   1.347   2.559 -0.4392 -0.4025  0.5218
  383CHL    CL2 2094   2.564   1.071   2.468 -0.0980 -0.1077 -0.0194
  383CHL      H 2095   2.346   1.162   2.531  0.1560 -0.3499 -1.3448
  384CHL     CL 2096   0.751   0.289   1.851 -0.1171  0.2958  0.0020
  384CHL      C 2097   0.634   0.326   1.724 -0.4631 -0.0056  0.0901
  384CHL    CL1 2098   0.559   0.170   1.666  0.0342 -0.1115  0.1769
  384CHL    CL2 2099   0.509   0.441   1.788 -0.0842 -0.2503 -0.0770
  384CHL      H 2100   0.690   0.370   1.641  1.0457  0.4725  1.3187
  385CHL     CL 2101   3.651   1.387   3.445 -0.0635 -0.1130  0.1335
  385CHL      C 2102   3.671   1.458   3.608 -0.4829  0.4070 -0.1007
  385CHL    CL1 2103   3.746   1.624   3.607 -0.0602 -0.0502  0.2099
  385CHL    CL2 2104   3.507   1.484   3.670  0.1799 -0.2442  0.1281
  385CHL      H 2105   3.729   1.386   3.668 -1.1025 -0.2123 -0.2402
  386CHL     CL 2106   3.511   4.035   0.799  0.1245  0.2434  0.1712
  386CHL      C 2107   3.574   4.073   0.964 -0.5175 -0.3970  0.0713
  386CHL    CL1 2108   3.498   4.216   1.042 -0.2286 -0.2445  0.1371
  386CHL    CL2 2109   3.572   3.930   1.074  0.0960  0.1959  0.2915
  386CHL      H 2110   3.677   4.109   0.952 -0.9118  1.1748  1.0226
  387CHL     CL 2111   2.496   1.984   3.293  0.1054 -0.2949 -0.0288
  387CHL      C 2112   2.388   1.853   3.323  0.3698 -0.1236 -0.3519
  387CHL    CL1 2113   2.361   1.756   3.171  0.0379 -0.0332  0.3065
  387CHL    CL2 2114   2.462   1.734   3.442  0.0217  0.1288  0.0421
  387CHL      H 2115   2.292   1.893   3.356 -0.5537 -1.6288 -1.0758
  388CHL     CL 2116   0.028   3.214   4.139  0.2410  0.0146  0.3301
  388CHL      C 2117  -0.060   3.057   4.133  0.4144 -0.2888  0.7371
  388CHL    CL1 2118  -0.026   2.969   4.288 -0.1326 -0.0828 -0.0996
  388CHL    CL2 2119  -0.244   3.080   4.137 -0.3212  0.2473  0.0292
  388CHL      H 2120  -0.023   2.992   4.053 -1.2069 -1.4822  0.9060
  389CHL     CL 2121   0.696   2.526   0.009 -0.3465  0.1661  0.4506
  389CHL      C 2122   0.704   2.539   0.188  0.0400  0.0950 -0.5904
  389CHL    CL1 2123   0.710   2.371   0.258  0.1640  0.0390  0.2556
  389CHL    CL2 2124   0.834   2.654   0.238 -0.1911 -0.0812 -0.1429
  389CHL      H 2125   0.608   2.578   0.225  0.5685 -0.8608  1.9855
  390CHL     CL 2126   0.688   2.479   0.583  0.1612  0.0655 -0.0793
  390CHL      C 2127   0.636   2.311   0.638 -0.4256 -0.0999  0.3158
  390CHL    CL1 2128   0.456   2.293   0.656  0.0495  0.1557  0.1173
  390CHL    CL2 2129   0.691   2.178   0.524  0.4627  0.3798  0.5588
  390CHL      H 2130   0.677   2.297   0.738 -2.8723  0.2183  1.4371
  391CHL     CL 2131   2.964   3.224   4.171  0.1817 -0.1576  0.0009
  391CHL      C 2132   3.066   3.303   4.054  0.2804  0.1913  0.1176
  391CHL    CL1 2133   3.145   3.168   3.962 -0.1327  0.3881 -0.1541
  391CHL    CL2 2134   2.967   3.403   3.944  0.0459 -0.2581  0.2905
  391CHL      H 2135   3.146   3.364   4.098  2.1964 -2.5689  0.7554
  392CHL     CL 2136   1.812   2.064   1.192  0.3669 -0.0779 -0.3052
  392CHL      C 2137   1.906   2.202   1.134 -0.0330 -0.1821 -0.5840
  392CHL    CL1 2138   1.992   2.293   1.261 -0.1624 -0.5915  0.0583
  392CHL    CL2 2139   2.029   2.138   1.014 -0.0624 -0.0832  0.0898
  392CHL      H 2140   1.843   2.270   1.075  2.0295  1.9722 -0.4738
  393CHL     CL 2141   3.770   2.741   1.836  0.1253 -0.3305  0.1799
  393CHL      C 2142   3.697   2.830   1.697  0.2520  0.6133  0.0335
  393CHL    CL1 2143   3.560   2.938   1.750 -0.0991 -0.2535  0.1925
  393CHL    CL2 2144   3.833   2.932   1.625 -0.2403  0.2649 -0.1347
  393CHL      H 2145   3.658   2.756   1.625 -0.9852  0.9799  0.3027
  394CHL     CL 2146   1.455   3.443   0.406  0.1675 -0.2640 -0.4054
  394CHL      C 2147   1.390   3.286   0.355  0.6112 -0.1996  0.6969
  394CHL    CL1 2148   1.499   3.165   0.430 -0.2078 -0.4946  0.0382
  394CHL    CL2 2149   1.220   3.276   0.418 -0.0558 -0.0828  0.4744
  394CHL      H 2150   1.401   3.280   0.246 -2.5868 -2.2078  0.3521
  395CHL     CL 2151   0.477   3.132   1.314  0.0489 -0.3211 -0.4718
  395CHL      C 2152   0.587   3.196   1.191  0.0838 -0.3323  0.3065
  395CHL    CL1 2153   0.611   3.375   1.202 -0.1147  0.1119 -0.3485
  395CHL    CL2 2154   0.745   3.102   1.176  0.3306  0.2625 -0.3773
  395CHL      H 2155   0.542   3.182   1.092  0.0002 -1.0306  0.4394
  396CHL     CL 2156   2.467   0.513   0.906  0.1603  0.0576  0.2757
  396CHL      C 2157   2.336   0.465   0.792 -0.6859  0.3191  0.2013
  396CHL    CL1 2158   2.326   0.280   0.772  0.0862 -0.4234 -0.1664
  396CHL    CL2 2159   2.189   0.537   0.842 -0.2301  0.1773  0.4278
  396CHL      H 2160   2.362   0.508   0.694 -0.0562  2.5767  1.2951
  397CHL     CL 2161   3.548   4.163   1.920 -0.1145 -0.3570  0.3996
  397CHL      C 2162   3.571   4.270   1.780  0.1916  0.0404  0.0505
  397CHL    CL1 2163   3.447   4.207   1.667  0.0427  0.1539  0.1830
  397CHL    CL2 2164   3.555   4.441   1.820 -0.3715 -0.3265  0.1404
  397CHL      H 2165   3.669   4.251   1.734  0.0074  0.4126 -0.4997
  398CHL     CL 2166   1.979   2.005   1.541 -0.0747  0.3811 -0.4608
  398CHL      C 2167   2.149   2.074   1.569 -0.4381  0.2013  0.6075
  398CHL    CL1 2168   2.227   2.019   1.723  0.0421 -0.0870  0.0817
  398CHL    CL2 2169   2.275   2.048   1.441  0.3304 -0.1649  0.0994
  398CHL      H 2170   2.134   2.178   1.601 -2.4647 -0.0712  0.6888
  399CHL     CL 2171   4.318   1.957   3.270  0.0686 -0.1396 -0.2685
  399CHL      C 2172   4.270   1.981   3.098  0.2414 -0.6051  0.1360
  399CHL    CL1 2173   4.414   2.031   2.998  0.1442 -0.2600 -0.4008
  399CHL    CL2 2174   4.196   1.831   3.034 -0.0627  0.1836  0.0968
  399CHL      H 2175   4.189   2.053   3.084  0.4445 -0.6429 -1.3434
  400CHL     CL 2176   3.910   3.394   4.341  0.2730  0.2021  0.0530
  400CHL      C 2177   3.872   3.350   4.176  0.5427 -0.1154 -0.2041
  400CHL    CL1 2178   3.754   3.218   4.183  0.2863  0.5537  0.0677
  400CHL    CL2 2179   3.801   3.487   4.095  0.1683  0.1560  0.4067
  400CHL      H 2180   3.964   3.325   4.123  0.9796  0.0522  0.4516
  401CHL     CL 2181   3.088   2.158   1.900  0.3843 -0.1691 -0.1320
  401CHL      C 2182   3.195   2.116   1.760  0.3022 -0.3966  0.2541
  401CHL    CL1 2183   3.103   2.105   1.611 -0.3341  0.1420 -0.2249
  401CHL    CL2 2184   3.306   2.253   1.736  0.1872 -0.0279 -0.2070
  401CHL      H 2185   3.257   2.027   1.775  0.3132 -0.6095 -0.9514
  402CHL     CL 2186   3.575   1.921   1.140  0.5607  0.3136 -0.2682
  402CHL      C 2187   3.570   1.746   1.102 -0.7127 -0.0265  0.1698
  402CHL    CL1 2188   3.698   1.664   1.199  0.3938 -0.1217  0.7457
  402CHL    CL2 2189   3.405   1.669   1.101  0.3957  0.0566  0.5230
  402CHL      H 2190   3.613   1.745   1.002 -0.8492  1.4709  0.0761
  403CHL     CL 2191   1.159   3.790   1.533 -0.1933 -0.0956 -0.3994
  403CHL      C 2192   1.319   3.772   1.441  0.5143  0.8453 -0.0009
  403CHL    CL1 2193   1.382   3.932   1.389  0.1734 -0.1804  0.2672
  403CHL    CL2 2194   1.445   3.683   1.542  0.2972 -0.0555  0.1167
  403CHL      H 2195   1.300   3.719   1.347  0.0421  2.4383 -0.8416
  404CHL     CL 2196   3.250   2.726   1.554  0.2341 -0.2809 -0.0002
  404CHL      C 2197   3.315   2.588   1.652  0.5870 -0.7500  0.1961
  404CHL    CL1 2198   3.484   2.550   1.609 -0.4084 -0.0703  0.1484
  404CHL    CL2 2199   3.290   2.620   1.826 -0.1456 -0.0024 -0.0328
  404CHL      H 2200   3.258   2.498   1.624  0.2576 -0.1658 -1.0704
  405CHL     CL 2201   2.785   4.080   0.160 -0.1367 -0.3750 -0.1414
  405CHL      C 2202   2.857   4.024   0.313 -0.0550 -0.1095 -0.6436
  405CHL    CL1 2203   2.997   4.126   0.365  0.1685 -0.0200  0.0557
  405CHL    CL2 2204   2.720   4.023   0.428 -0.0914  0.0028 -0.1794
  405CHL      H 2205   2.894   3.922   0.301 -0.6709 -0.4479  0.2430
  406CHL     CL 2206   1.481   2.387   2.057 -0.4022 -0.0033  0.4170
  406CHL      C 2207   1.350   2.376   1.937 -0.0079 -0.1043 -0.0122
  406CHL    CL1 2208   1.364   2.506   1.815  0.1811  0.0291  0.2248
  406CHL    CL2 2209   1.373   2.223   1.839  0.3530 -0.1716 -0.1351
  406CHL      H 2210   1.256   2.376   1.993  1.3269 -1.1583  2.4056
  407CHL     CL 2211   1.257   1.355   0.312  0.3511  0.1970 -0.1602
  407CHL      C 2212   1.196   1.456   0.457 -0.1598  0.0886  0.4584
  407CHL    CL1 2213   1.074   1.361   0.558 -0.0447  0.2737  0.1545
  407CHL    CL2 2214   1.342   1.501   0.555 -0.5328  0.3525 -0.2225
  407CHL      H 2215   1.148   1.543   0.412  1.6359  1.0977  0.4142
  408CHL     CL 2216   3.367   3.163   4.228  0.1448 -0.0340  0.3660
  408CHL      C 2217   3.363   3.140   4.405  0.4994 -0.0609 -0.0030
  408CHL    CL1 2218   3.247   3.255   4.477  0.2224 -0.4259  0.4394
  408CHL    CL2 2219   3.293   2.975   4.429  0.0596 -0.2653 -0.2362
  408CHL      H 2220   3.463   3.153   4.449 -1.4634  0.6951  4.8028
  409CHL     CL 2221   3.868   3.935   3.542  0.1278 -0.2778  0.0402
  409CHL      C 2222   3.825   3.758   3.561  0.1737 -0.0900 -0.6249
  409CHL    CL1 2223   3.653   3.732   3.595  0.1959 -0.4418  0.1542
  409CHL    CL2 2224   3.871   3.663   3.416 -0.0977  0.0586  0.2268
  409CHL      H 2225   3.874   3.713   3.648 -1.1890 -2.5680 -1.0193
  410CHL     CL 2226   2.487   0.433   1.695  0.1883  0.0142 -0.3270
  410CHL      C 2227   2.496   0.596   1.622 -0.1913 -0.8381  0.0382
  410CHL    CL1 2228   2.534   0.721   1.744  0.1643  0.3073 -0.3376
  410CHL    CL2 2229   2.619   0.611   1.492 -0.5460  0.1415  0.1316
  410CHL      H 2230   2.400   0.613   1.573  0.7641  0.6577 -1.4109
  411CHL     CL 2231   1.073   2.538   2.787 -0.0832  0.2794 -0.5014
  411CHL      C 2232   1.197   2.630   2.881 -0.8120  0.2347  0.9473
  411CHL    CL1 2233   1.198   2.798   2.831 -0.2243 -0.3768  0.0493
  411CHL    CL2 2234   1.153   2.621   3.056  0.1339 -0.3223  0.0325
  411CHL      H 2235   1.300   2.594   2.880 -0.4555  1.0296  2.8638
  412CHL     CL 2236   1.726   0.313   4.280 -0.2400  0.1512  0.4067
  412CHL      C 2237   1.658   0.300   4.113 -0.6509 -0.9451 -0.1966
  412CHL    CL1 2238   1.490   0.242   4.134 -0.4499  0.0760  0.3984
  412CHL    CL2 2239   1.659   0.457   4.017  0.1509 -0.1092  0.0135
  412CHL      H 2240   1.703   0.222   4.050 -2.1571 -1.5523 -0.5655
  413CHL     CL 2241   2.314   3.785   3.108 -0.2375 -0.2258  0.3824
  413CHL      C 2242   2.283   3.953   3.079  0.3192 -0.4216 -0.5948
  413CHL    CL1 2243   2.289   4.051   3.232 -0.1621 -0.0769 -0.3977
  413CHL    CL2 2244   2.394   4.021   2.956 -0.2640 -0.0153 -0.1782
  413CHL      H 2245   2.176   3.954   3.056 -0.3674  0.4643  2.2236
  414CHL     CL 2246   0.192   2.664   3.030 -0.3134  0.1131 -0.0608
  414CHL      C 2247   0.364   2.692   3.054  1.1420  0.6017 -0.2762
  414CHL    CL1 2248   0.428   2.827   2.955  0.6912  0.0572  0.3888
  414CHL    CL2 2249   0.388   2.723   3.225  0.3655  0.1618 -0.0459
  414CHL      H 2250   0.421   2.605   3.022  0.2254  0.2294 -0.9415
  415CHL     CL 2251   4.241   3.217   1.384 -0.0851 -0.0397 -0.0794
  415CHL      C 2252   4.111   3.151   1.276  0.2701  0.1253  0.1198
  415CHL    CL1 2253   4.014   3.285   1.200  0.1293 -0.2235 -0.1753
  415CHL    CL2 2254   4.174   3.050   1.145  0.0363 -0.1675 -0.1280
  415CHL      H 2255   4.048   3.089   1.341 -1.4712  1.1050 -0.5695
  416CHL     CL 2256   4.321   1.663   3.591 -0.4462 -0.1067  0.2901
  416CHL      C 2257   4.323   1.803   3.694 -0.0842 -0.1389 -0.3498
  416CHL    CL1 2258   4.448   1.772   3.828 -0.1261 -0.3638  0.2447
  416CHL    CL2 2259   4.376   1.946   3.598  0.2326 -0.1367  0.4604
  416CHL      H 2260   4.220   1.814   3.732  0.3979 -3.5293  2.5194
  417CHL     CL 2261   0.662   0.299   3.139  0.2714  0.1032 -0.1322
  417CHL      C 2262   0.835   0.236   3.116 -0.4520  0.6438 -0.4259
  417CHL    CL1 2263   0.866   0.091   3.213 -0.0622  0.2335 -0.3766
  417CHL    CL2 2264   0.871   0.195   2.946  0.1812 -0.3003 -0.1749
  417CHL      H 2265   0.910   0.306   3.154 -2.0682  2.3473 -0.2721
  418CHL     CL 2266   0.773   2.769   2.962 -0.2977 -0.2324 -0.1099
  418CHL      C 2267   0.804   2.652   3.090 -0.0655 -0.6167  0.9167
  418CHL    CL1 2268   0.760   2.705   3.260 -0.0211  0.2877  0.4646
  418CHL    CL2 2269   0.724   2.486   3.065 -0.1745 -0.0235  0.2850
  418CHL      H 2270   0.913   2.638   3.087  0.0262  0.1848  0.0876
  419CHL     CL 2271   3.123   3.785   2.031  0.2208 -0.0251 -0.2331
  419CHL      C 2272   3.065   3.819   2.183 -0.0775  0.6906 -0.5554
  419CHL    CL1 2273   2.932   3.942   2.169  0.7007 -0.0880 -0.1946
  419CHL    CL2 2274   2.996   3.670   2.258  0.4433 -0.1332 -0.2993
  419CHL      H 2275   3.151   3.852   2.241  1.5389 -2.3683 -1.0043
  420CHL     CL 2276   2.099   4.316   3.062  0.1864  0.2971 -0.2627
  420CHL      C 2277   2.146   4.449   3.181  0.8446  0.5182  0.4756
  420CHL    CL1 2278   2.088   4.606   3.127 -0.6009  0.0957  0.1619
  420CHL    CL2 2279   2.082   4.393   3.340 -0.0511  0.5867  0.1049
  420CHL      H 2280   2.255   4.433   3.179  0.9993  1.5500  0.1447
  421CHL     CL 2281   4.224   4.179   4.034  0.1064  0.1117  0.0785
  421CHL      C 2282   4.366   4.066   4.046  0.6900 -0.5973  0.1195
  421CHL    CL1 2283   4.378   4.011   4.212  0.2004  0.4152 -0.2622
  421CHL    CL2 2284   4.339   3.932   3.931 -0.1833  0.1248 -0.2629
  421CHL      H 2285   4.461   4.119   4.029  0.2533  1.6527  3.6970
  422CHL     CL 2286   3.755   0.189   0.386 -0.1427  0.1550 -0.1338
  422CHL      C 2287   3.784   0.362   0.338 -0.1862  0.4333  0.0991
  422CHL    CL1 2288   3.920   0.364   0.224 -0.3373 -0.0860  0.2791
  422CHL    CL2 2289   3.636   0.424   0.262 -0.1359  0.4289 -0.2656
  422CHL      H 2290   3.801   0.425   0.425  0.9668 -1.8006  1.5946
  423CHL     CL 2291   3.265   1.361   0.225  0.2912 -0.4176 -0.3350
  423CHL      C 2292   3.411   1.345   0.112  0.2222  0.3518  0.5152
  423CHL    CL1 2293   3.506   1.484   0.139 -0.1489  0.2143 -0.2113
  423CHL    CL2 2294   3.512   1.190   0.131  0.1064  0.1356  0.3316
  423CHL      H 2295   3.367   1.344   0.012 -0.1369 -0.0558  0.6710
  424CHL     CL 2296   3.846   0.697   0.379 -0.4342 -0.4557 -0.2249
  424CHL      C 2297   3.872   0.795   0.227  0.1205 -0.6075 -0.5952
  424CHL    CL1 2298   3.794   0.721   0.080 -0.1685  0.2346  0.2115
  424CHL    CL2 2299   3.798   0.963   0.268  0.7067 -0.1446 -0.0918
  424CHL      H 2300   3.979   0.801   0.205  0.6606 -2.5505  1.1546
  425CHL     CL 2301   2.087   2.473   0.022 -0.0055  0.0936  0.2274
  425CHL      C 2302   2.128   2.570  -0.122 -1.0816 -0.0004 -0.3329
  425CHL    CL1 2303   2.309   2.588  -0.126 -0.2127  0.0878 -0.4109
  425CHL    CL2 2304   2.077   2.495  -0.279 -0.1748 -0.1877  0.3697
  425CHL      H 2305   2.081   2.669  -0.116  1.2311  1.1937 -0.7977
  426CHL     CL 2306   1.825   3.146   3.719  0.5971  0.2109  0.0043
  426CHL      C 2307   1.731   3.257   3.613 -0.1151 -0.1363  0.2878
  426CHL    CL1 2308   1.635   3.159   3.489 -0.2968  0.3017  0.2179
  426CHL    CL2 2309   1.630   3.370   3.700  0.0063  0.2358 -0.0364
  426CHL      H 2310   1.807   3.306   3.552  0.6668 -1.4640  0.1462
  427CHL     CL 2311   1.658   4.324   0.603 -0.1709  0.0820  0.0907
  427CHL      C 2312   1.756   4.384   0.464 -0.1805  0.3029 -0.0658
  427CHL    CL1 2313   1.907   4.465   0.528 -0.1116  0.1454  0.4908
  427CHL    CL2 2314   1.798   4.234   0.374 -0.0209  0.2763  0.2521
  427CHL      H 2315   1.706   4.458   0.401  0.0104  0.8505  0.4170
  428CHL     CL 2316   3.592   3.393   0.370  0.2028 -0.1454  0.4766
  428CHL      C 2317   3.714   3.348   0.486  0.3890  0.0509  0.4182
  428CHL    CL1 2318   3.850   3.261   0.419  0.2421 -0.1178  0.1003
  428CHL    CL2 2319   3.761   3.495   0.573 -0.4609 -0.6030  0.2018
  428CHL      H 2320   3.680   3.272   0.556  1.3494 -0.3943  0.4164
  429CHL     CL 2321   0.350   1.433   1.325  0.0299  0.1409  0.3789
  429CHL      C 2322   0.297   1.452   1.158 -0.0607 -0.3851 -0.3635
  429CHL    CL1 2323   0.169   1.577   1.146  0.3432 -0.0092  0.1008
  429CHL    CL2 2324   0.436   1.481   1.048  0.0683  0.0293 -0.0357
  429CHL      H 2325   0.261   1.353   1.128 -0.5368 -0.2409 -0.2669
  430CHL     CL 2326   0.893   3.159   2.969  0.0975 -0.2284  0.4517
  430CHL      C 2327   1.047   3.184   3.050 -0.2622  0.4606  0.2613
  430CHL    CL1 2328   1.111   3.359   3.058 -0.2462  0.6718 -0.0449
  430CHL    CL2 2329   1.028   3.119   3.214 -0.5170 -0.6785 -0.0473
  430CHL      H 2330   1.113   3.114   2.996 -0.9105 -0.0049  0.0574
  431CHL     CL 2331   3.445   0.635   1.114  0.0042  0.1813  0.0767
  431CHL      C 2332   3.584   0.664   1.213  0.2755  1.2523 -0.1255
  431CHL    CL1 2333   3.616   0.515   1.302  0.2324  0.1846 -0.3623
  431CHL    CL2 2334   3.720   0.701   1.105 -0.0779 -0.5651  0.2042
  431CHL      H 2335   3.578   0.748   1.282 -0.3725  2.4680 -1.6165
  432CHL     CL 2336   3.748   0.460   1.667  0.3502 -0.2225 -0.3747
  432CHL      C 2337   3.697   0.410   1.835 -0.0546  0.6661 -0.0395
  432CHL    CL1 2338   3.832   0.356   1.932 -0.0266  0.2217 -0.2159
  432CHL    CL2 2339   3.622   0.558   1.924  0.1408 -0.1330  0.2325
  432CHL      H 2340   3.629   0.325   1.847 -2.1485  2.2787  0.1836
  433CHL     CL 2341   3.634   0.184   2.626 -0.1680 -0.1632 -0.1788
  433CHL      C 2342   3.688   0.308   2.513 -0.4962 -0.0494  0.4839
  433CHL    CL1 2343   3.682   0.251   2.342  0.1746 -0.2026 -0.0365
  433CHL    CL2 2344   3.605   0.466   2.547 -0.7871  0.3279 -0.4397
  433CHL      H 2345   3.793   0.328   2.534  0.0947 -0.6260 -1.6640
  434CHL     CL 2346   4.069   3.055   3.685 -0.4183 -0.0565  0.0323
  434CHL      C 2347   4.014   3.226   3.686 -1.0951  0.3461 -0.3213
  434CHL    CL1 2348   3.850   3.240   3.757 -0.0283 -0.2175  0.1155
  434CHL    CL2 2349   4.144   3.314   3.786 -0.1653  0.3258  0.0183
  434CHL      H 2350   4.006   3.263   3.583  0.7838  1.4415 -0.1258
  435CHL     CL 2351   3.961   1.882   3.807 -0.1872  0.2477  0.1385
  435CHL      C 2352   3.989   2.013   3.695 -0.6195 -1.0050  0.0793
  435CHL    CL1 2353   4.128   2.125   3.731  0.2291  0.2528  0.0276
  435CHL    CL2 2354   3.994   1.946   3.525 -0.0285  0.2159 -0.0430
  435CHL      H 2355   3.898   2.072   3.711 -0.3233 -0.6931  0.6350
  436CHL     CL 2356   2.237   3.336   4.353 -0.1461 -0.0908  0.3849
  436CHL      C 2357   2.079   3.281   4.291  0.0138 -0.4334 -0.4645
  436CHL    CL1 2358   1.963   3.418   4.283 -0.0732  0.2902  0.1673
  436CHL    CL2 2359   2.104   3.220   4.133  0.0160  0.1198 -0.1717
  436CHL      H 2360   2.052   3.209   4.368 -2.0029  0.2233 -0.4855
  437CHL     CL 2361   3.533   2.378   0.743  0.1172 -0.0807  0.0203
  437CHL      C 2362   3.576   2.548   0.730  0.1285 -0.8737  0.3066
  437CHL    CL1 2363   3.691   2.579   0.865 -0.4026  0.0118  0.0907
  437CHL    CL2 2364   3.655   2.592   0.566 -0.2791  0.4490  0.0712
  437CHL      H 2365   3.485   2.610   0.738  0.8168  0.1903  0.1116
  438CHL     CL 2366   2.351   4.388   3.580 -0.1026  0.0162  0.0992
  438CHL      C 2367   2.392   4.267   3.713 -0.4051 -0.2012  0.0102
  438CHL    CL1 2368   2.306   4.310   3.857  0.4583  0.4293 -0.0703
  438CHL    CL2 2369   2.347   4.097   3.657  0.2481  0.2909 -0.1501
  438CHL      H 2370   2.496   4.286   3.740 -0.3807 -1.0791  0.5784
  439CHL     CL 2371   1.807   0.492   0.263  0.0653  0.1667 -0.4510
  439CHL      C 2372   1.970   0.541   0.318 -0.0571  0.4602 -1.2244
  439CHL    CL1 2373   2.016   0.703   0.246  0.2818  0.1030  0.0773
  439CHL    CL2 2374   1.976   0.547   0.500  0.2432  0.3178  0.3255
  439CHL      H 2375   2.037   0.460   0.287 -2.0146 -1.8366  0.2503
  440CHL     CL 2376   2.515   0.098   2.484  0.0491  0.0471  0.4443
  440CHL      C 2377   2.565   0.257   2.522  0.4271 -0.7289  0.1045
  440CHL    CL1 2378   2.659   0.326   2.381  0.2000  0.2703  0.0713
  440CHL    CL2 2379   2.429   0.358   2.568 -0.1297  0.3303  0.0145
  440CHL      H 2380   2.625   0.250   2.614 -0.9773 -0.9207  1.0456
  441CHL     CL 2381   2.307   3.916   1.201  0.5468  0.5114 -0.1077
  441CHL      C 2382   2.208   3.788   1.294  0.2153 -0.3439 -0.5177
  441CHL    CL1 2383   2.119   3.862   1.425  0.0749 -0.1507  0.0047
  441CHL    CL2 2384   2.079   3.707   1.184 -0.1132  0.0221 -0.1666
  441CHL      H 2385   2.284   3.713   1.320  1.2358  0.5251 -0.8765
  442CHL     CL 2386   0.531   3.671   4.089  0.1308 -0.3328 -0.1803
  442CHL      C 2387   0.572   3.635   4.257  0.3195  0.0387  0.1431
  442CHL    CL1 2388   0.575   3.457   4.282  0.2161 -0.0449  0.0968
  442CHL    CL2 2389   0.739   3.696   4.278 -0.1835 -0.2397  0.3368
  442CHL      H 2390   0.504   3.674   4.332  0.3187 -0.7844  0.5864
  443CHL     CL 2391   4.044   0.880   3.747  0.3175  0.1349 -0.4591
  443CHL      C 2392   4.018   0.835   3.919  0.3153 -0.1499 -0.0312
  443CHL    CL1 2393   3.945   0.675   3.918 -0.0769 -0.0303  0.0324
  443CHL    CL2 2394   4.184   0.835   3.986  0.2619 -0.3715  0.0768
  443CHL      H 2395   3.969   0.912   3.980  2.0713  0.5642  0.5635
  444CHL     CL 2396   3.005   0.486   0.323  0.1850  0.4012  0.1145
  444CHL      C 2397   3.106   0.349   0.268  0.3271  0.7021 -0.0191
  444CHL    CL1 2398   3.272   0.422   0.230  0.0479 -0.3176  0.5826
  444CHL    CL2 2399   3.128   0.228   0.407  0.1159 -0.4413  0.2311
  444CHL      H 2400   3.071   0.296   0.179  1.0100  2.3476 -1.3124
  445CHL     CL 2401   3.285   3.579   1.401  0.3708  0.3841 -0.0551
  445CHL      C 2402   3.168   3.635   1.277  0.0677 -0.0317  0.1375
  445CHL    CL1 2403   3.257   3.678   1.127 -0.1247  0.0241 -0.1894
  445CHL    CL2 2404   3.052   3.493   1.241 -0.5226 -0.1402  0.0305
  445CHL      H 2405   3.109   3.721   1.310  1.7023  0.5647  1.6822
  446CHL     CL 2406   3.094   4.157   2.832 -0.1037  0.1878  0.3741
  446CHL      C 2407   2.945   4.096   2.913  0.1838  0.1149 -0.2920
  446CHL    CL1 2408   2.810   4.207   2.895  0.0956  0.3612 -0.3387
  446CHL    CL2 2409   2.907   3.936   2.846 -0.2629 -0.4801 -0.0309
  446CHL      H 2410   2.957   4.085   3.021  0.2970 -1.7009 -0.4717
  447CHL     CL 2411   2.447   2.088   4.122  0.0944 -0.2438  0.4996
  447CHL      C 2412   2.394   2.031   4.285 -0.0537  0.4398  0.6212
  447CHL    CL1 2413   2.522   2.071   4.410 -0.7001  0.0801 -0.0310
  447CHL    CL2 2414   2.242   2.115   4.319  0.1305  0.0798  0.0896
  447CHL      H 2415   2.376   1.924   4.277 -0.8861  0.6457 -0.5104
  448CHL     CL 2416   2.827   2.920   1.203 -0.2247 -0.0076 -0.0200
  448CHL      C 2417   2.977   2.959   1.274 -0.2754  0.2650 -0.4086
  448CHL    CL1 2418   3.074   3.046   1.150  0.5669  0.6243  0.7557
  448CHL    CL2 2419   2.953   3.060   1.415 -0.1672  0.1367  0.1238
  448CHL      H 2420   3.028   2.867   1.304  0.4691  0.4610 -1.0454
  449CHL     CL 2421   3.103   1.817   2.907 -0.5600  0.3833 -0.0370
  449CHL      C 2422   3.179   1.653   2.883 -0.2248 -0.3843 -1.0464
  449CHL    CL1 2423   3.086   1.560   2.752 -0.0329  0.1977  0.4751
  449CHL    CL2 2424   3.341   1.693   2.827  0.0506  0.2473 -0.1201
  449CHL      H 2425   3.174   1.609   2.983  1.0693  3.2000  0.7911
  450CHL     CL 2426   0.572   2.836   1.586 -0.0547 -0.0036  0.0236
  450CHL      C 2427   0.425   2.735   1.562 -0.0359 -0.4441  0.7985
  450CHL    CL1 2428   0.460   2.564   1.607  0.8578 -0.1192 -0.1248
  450CHL    CL2 2429   0.298   2.793   1.674 -0.3686 -0.1882  0.3085
  450CHL      H 2430   0.392   2.748   1.458 -2.8359  1.3436  1.7800
  451CHL     CL 2431   1.333   0.033   0.624 -0.1037 -0.0830 -0.2537
  451CHL      C 2432   1.162  -0.008   0.608 -0.8062  0.1215 -0.1484
  451CHL    CL1 2433   1.154  -0.183   0.567  0.1141  0.2477  0.0035
  451CHL    CL2 2434   1.068   0.035   0.760  0.1306  0.1261 -0.0861
  451CHL      H 2435   1.118   0.044   0.523 -2.3007  0.9342  1.0671
  452CHL     CL 2436   2.821   0.557   0.913  0.0235 -0.3260  0.2477
  452CHL      C 2437   2.907   0.403   0.866  0.7892 -0.8052 -0.3986
  452CHL    CL1 2438   2.794   0.271   0.834  0.0367  0.0306  0.3708
  452CHL    CL2 2439   2.989   0.462   0.714  0.0823  0.1821 -0.0462
  452CHL      H 2440   2.980   0.365   0.938  0.3490  1.2486  1.2343
  453CHL     CL 2441   4.303   1.775   0.140 -0.0901 -0.0938 -0.1483
  453CHL      C 2442   4.267   1.887   0.285  0.2036 -0.3762 -0.0252
  453CHL    CL1 2443   4.111   1.959   0.257  0.5425  0.0668  0.2126
  453CHL    CL2 2444   4.258   1.792   0.437  0.2443  0.1278  0.1530
  453CHL      H 2445   4.347   1.962   0.290  0.9550 -1.1282 -0.5218
  454CHL     CL 2446   3.824   1.566   0.229 -0.2720  0.1480 -0.6406
  454CHL      C 2447   3.782   1.460   0.374 -0.1535  0.3533  0.0107
  454CHL    CL1 2448   3.631   1.517   0.455  0.0442  0.5943  0.1180
  454CHL    CL2 2449   3.766   1.295   0.308 -0.4549 -0.2288  0.3774
  454CHL      H 2450   3.863   1.468   0.448 -1.1367 -0.9159  1.2726
  455CHL     CL 2451   0.221   1.302   1.646  0.1817  0.3154 -0.0448
  455CHL      C 2452   0.191   1.303   1.824 -0.7516  0.4881 -0.3898
  455CHL    CL1 2453   0.347   1.276   1.909  0.0400 -0.1213  0.1818
  455CHL    CL2 2454   0.120   1.464   1.871  0.2513  0.0408  0.4699
  455CHL      H 2455   0.110   1.240   1.862  0.5112 -0.3285  1.0537
  456CHL     CL 2456   4.079   0.296   4.057  0.3625 -0.3162  0.2941
  456CHL      C 2457   4.000   0.193   3.933  0.4381  0.1682  1.0976
  456CHL    CL1 2458   3.900   0.065   4.015 -0.2828  0.5209 -0.0423
  456CHL    CL2 2459   3.911   0.286   3.810  0.2606 -0.2465 -0.3181
  456CHL      H 2460   4.077   0.138   3.878 -0.2401  0.3593 -0.0710
  457CHL     CL 2461   4.362   3.502   1.774  0.0509 -0.3001  0.0577
  457CHL      C 2462   4.326   3.679   1.818 -1.0956  0.2911  0.0603
  457CHL    CL1 2463   4.342   3.699   2.004 -0.0853 -0.1725  0.0242
  457CHL    CL2 2464   4.442   3.791   1.745 -0.2853 -0.1807  0.3023
  457CHL      H 2465   4.226   3.709   1.783 -1.6527 -1.4155  0.1095
  458CHL     CL 2466   1.077   4.237   3.742  0.1010 -0.2657 -0.0283
  458CHL      C 2467   1.027   4.089   3.659 -1.1914 -0.7070 -0.1670
  458CHL    CL1 2468   0.851   4.101   3.648  0.2721 -0.0759  0.0609
  458CHL    CL2 2469   1.112   4.066   3.506 -0.1008 -0.2484 -0.0258
  458CHL      H 2470   1.057   4.012   3.730  1.2003 -0.8145 -1.1662
  459CHL     CL 2471   2.952   2.867   3.303 -0.3684  0.1066  0.0401
  459CHL      C 2472   2.812   2.957   3.217 -0.4614 -0.2396  0.1109
  459CHL    CL1 2473   2.870   3.095   3.114  0.4665  0.4288  0.5746
  459CHL    CL2 2474   2.707   2.840   3.120 -0.2310 -0.1072  0.2037
  459CHL      H 2475   2.761   2.998   3.305  0.9119  0.3355  0.6533
  460CHL     CL 2476   2.170   2.644   2.432  0.1219 -0.4257  0.3948
  460CHL      C 2477   2.110   2.738   2.574  0.4808  0.9776 -0.2952
  460CHL    CL1 2478   2.241   2.780   2.685 -0.1446  0.1214  0.1117
  460CHL    CL2 2479   2.022   2.887   2.531 -0.1098 -0.0001 -0.4849
  460CHL      H 2480   2.038   2.671   2.623  0.6043  0.4491 -0.8179
  461CHL     CL 2481   3.868   4.183   2.106 -0.4488 -0.5135 -0.1725
  461CHL      C 2482   3.805   4.351   2.083 -0.7515 -0.2060 -0.8011
  461CHL    CL1 2483   3.655   4.360   2.176 -0.0368 -0.5278  0.2388
  461CHL    CL2 2484   3.915   4.462   2.167  0.3571 -0.4070 -0.2380
  461CHL      H 2485   3.788   4.371   1.977  0.3595  0.9378 -0.7831
  462CHL     CL 2486   0.347   2.530   1.942 -0.0943  0.0845  0.5230
  462CHL      C 2487   0.305   2.368   1.888 -0.5687  0.2507 -0.1151
  462CHL    CL1 2488   0.399   2.248   1.978 -0.2188  0.3496 -0.5502
  462CHL    CL2 2489   0.129   2.338   1.900 -0.3426 -0.5710  0.2197
  462CHL      H 2490   0.337   2.368   1.783  0.0083  1.8795  0.0380
  463CHL     CL 2491   3.039   0.143   3.156 -0.1425 -0.3348 -0.1500
  463CHL      C 2492   3.070   0.279   3.278  0.0519 -0.7866 -0.4037
  463CHL    CL1 2493   3.240   0.265   3.355 -0.2687  0.0452 -0.0791
  463CHL    CL2 2494   3.066   0.436   3.191  0.3777  0.2362  0.1263
  463CHL      H 2495   2.993   0.272   3.356  1.5803 -1.9074  1.1091
  464CHL     CL 2496   1.662   1.959   0.339 -0.3541 -0.1348  0.0711
  464CHL      C 2497   1.673   2.136   0.312  0.3441  0.0543  0.3213
  464CHL    CL1 2498   1.557   2.179   0.174  0.0541 -0.0268  0.0974
  464CHL    CL2 2499   1.627   2.216   0.467 -0.5586 -0.1130  0.5071
  464CHL      H 2500   1.771   2.177   0.286 -0.1248  1.0671  0.0768
  465CHL     CL 2501   3.415   4.140   2.665 -0.1653  0.3527  0.0242
  465CHL      C 2502   3.305   4.251   2.578  0.2252 -0.0668  0.0097
  465CHL    CL1 2503   3.394   4.363   2.468  0.0434 -0.2566 -0.3579
  465CHL    CL2 2504   3.183   4.152   2.488 -0.1771  0.4667 -0.0446
  465CHL      H 2505   3.250   4.307   2.655  0.6141  1.1444 -0.5889
  466CHL     CL 2506   3.388   2.899   3.871  0.2030  0.3893  0.3357
  466CHL      C 2507   3.549   2.902   3.792 -0.3026  0.6205 -0.0987
  466CHL    CL1 2508   3.545   2.981   3.627  0.0041 -0.2477  0.0822
  466CHL    CL2 2509   3.659   2.989   3.903 -0.0612  0.4546  0.0492
  466CHL      H 2510   3.570   2.794   3.792 -1.7597  0.3180 -0.8949
  467CHL     CL 2511   0.069   2.958   1.842 -0.2135  0.0601  0.2056
  467CHL      C 2512  -0.037   2.814   1.853 -0.4875  0.8289 -0.5903
  467CHL    CL1 2513  -0.004   2.747   2.020  0.0540 -0.0526 -0.1915
  467CHL    CL2 2514  -0.208   2.867   1.837 -0.0752 -0.2062 -0.2837
  467CHL      H 2515  -0.008   2.748   1.770  0.5108  1.3282 -0.6585
  468CHL     CL 2516   3.216   3.360   3.628  0.0961 -0.2312  0.1699
  468CHL      C 2517   3.268   3.216   3.545 -0.1830 -0.1538 -0.2358
  468CHL    CL1 2518   3.135   3.097   3.577  0.2804  0.0943 -0.5601
  468CHL    CL2 2519   3.284   3.236   3.373 -0.1708 -0.3409  0.4082
  468CHL      H 2520   3.360   3.171   3.587  0.5392  0.6220 -0.9619
  469CHL     CL 2521   2.604   0.623   4.262 -0.1012 -0.0584  0.3669
  469CHL      C 2522   2.593   0.472   4.168 -0.9783  0.1124 -0.3756
  469CHL    CL1 2523   2.753   0.406   4.129  0.1600 -0.0585  0.1194
  469CHL    CL2 2524   2.500   0.352   4.255  0.1667  0.4008 -0.1955
  469CHL      H 2525   2.551   0.503   4.072  1.4917 -0.3261 -1.6723
  470CHL     CL 2526   2.726   2.392   1.296  0.3123  0.1713  0.0654
  470CHL      C 2527   2.848   2.415   1.166  0.4986  0.2418  0.9968
  470CHL    CL1 2528   2.790   2.360   0.991  0.3448 -0.1636 -0.3962
  470CHL    CL2 2529   2.898   2.585   1.153 -0.0658 -0.1083  0.1531
  470CHL      H 2530   2.938   2.360   1.196  1.4214  0.4423 -1.1934
  471CHL     CL 2531   4.274   0.985   1.225  0.0534 -0.0109 -0.2089
  471CHL      C 2532   4.423   1.005   1.312  0.0259  0.1181 -0.2755
  471CHL    CL1 2533   4.524   1.124   1.226  0.0771  0.3416 -0.1981
  471CHL    CL2 2534   4.380   1.070   1.475 -0.1815  0.3851 -0.3533
  471CHL      H 2535   4.465   0.904   1.318 -0.0823  0.1430  4.1964
  472CHL     CL 2536   0.366   4.196   2.331  0.1519  0.1761 -0.0875
  472CHL      C 2537   0.353   4.367   2.303  0.5015  0.5181 -0.4502
  472CHL    CL1 2538   0.198   4.398   2.214  0.2246  0.3649  0.2246
  472CHL    CL2 2539   0.359   4.460   2.454 -0.0938 -0.4275  0.1879
  472CHL      H 2540   0.439   4.384   2.238  0.9950 -0.5739 -0.1093
  473CHL     CL 2541   0.923   1.670   3.845  0.3639 -0.2129 -0.2865
  473CHL      C 2542   0.959   1.542   3.966 -0.1959  1.0528  0.0006
  473CHL    CL1 2543   0.953   1.381   3.889  0.1808  0.0907 -0.1566
  473CHL    CL2 2544   1.122   1.567   4.036  0.1031 -0.3801  0.2245
  473CHL      H 2545   0.884   1.546   4.045  1.5745 -0.9298  1.9171
  474CHL     CL 2546   1.285   0.231   0.099  0.3284 -0.1402  0.0228
  474CHL      C 2547   1.434   0.136   0.120  0.2844 -0.7224 -0.2648
  474CHL    CL1 2548   1.550   0.233   0.229  0.0215  0.1738  0.2146
  474CHL    CL2 2549   1.395  -0.027   0.188  0.4014 -0.1583  0.0981
  474CHL      H 2550   1.482   0.138   0.021  0.7563  1.5596 -0.0662
  475CHL     CL 2551   1.377   3.645   3.820 -0.0675 -0.1477  0.0551
  475CHL      C 2552   1.356   3.716   3.660  0.7091  0.0968 -0.1862
  475CHL    CL1 2553   1.181   3.773   3.651 -0.3890 -0.1026  0.1978
  475CHL    CL2 2554   1.462   3.863   3.642  0.1118  0.2146 -0.4522
  475CHL      H 2555   1.381   3.643   3.581  3.8237  0.3613  0.4322
  476CHL     CL 2556   2.463   2.758   0.279 -0.2065 -0.1124  0.1528
  476CHL      C 2557   2.295   2.826   0.301 -0.2138 -0.5444  0.1429
  476CHL    CL1 2558   2.188   2.709   0.370 -0.1736 -0.3135 -0.1767
  476CHL    CL2 2559   2.296   2.964   0.401 -0.0755  0.1405 -0.0748
  476CHL      H 2560   2.263   2.847   0.198  2.1259  0.1534 -0.4827
  477CHL     CL 2561   0.364   3.286   2.751 -0.0015 -0.2415  0.3269
  477CHL      C 2562   0.545   3.252   2.761 -0.7627  0.5559 -0.9058
  477CHL    CL1 2563   0.630   3.403   2.794 -0.0328 -0.1134  0.3798
  477CHL    CL2 2564   0.571   3.118   2.881 -0.1442  0.1520 -0.1532
  477CHL      H 2565   0.569   3.203   2.666 -1.9168 -2.2553  0.1391
  478CHL     CL 2566   3.748   3.909   3.869 -0.0153 -0.0799 -0.2011
  478CHL      C 2567   3.912   3.937   3.940  0.1146  0.1643  0.0183
  478CHL    CL1 2568   3.901   4.077   4.060  0.3614 -0.3267  0.3882
  478CHL    CL2 2569   3.981   3.788   4.017  0.2754  0.5574  0.1275
  478CHL      H 2570   3.984   3.961   3.860 -0.0346 -1.3723 -0.5971
  479CHL     CL 2571   1.274   4.392   4.019 -0.5409  0.3487  0.2018
  479CHL      C 2572   1.394   4.255   3.984 -0.1837 -0.0462 -0.4253
  479CHL    CL1 2573   1.321   4.099   4.039  0.3089 -0.0519  0.3691
  479CHL    CL2 2574   1.432   4.249   3.809  0.0950 -0.0373  0.5357
  479CHL      H 2575   1.486   4.268   4.042 -0.9232  0.9439  0.5534
  480CHL     CL 2576   2.778   3.197   0.563 -0.4975 -0.1794  0.4464
  480CHL      C 2577   2.756   3.259   0.729  0.4178 -0.3576  0.7646
  480CHL    CL1 2578   2.575   3.299   0.762 -0.2835 -0.0017 -0.0399
  480CHL    CL2 2579   2.836   3.162   0.848 -0.0656 -0.0810 -0.0428
  480CHL      H 2580   2.807   3.356   0.727 -0.0812 -0.0827  1.1078
  481CHL     CL 2581   4.357   1.430   2.788 -0.2464 -0.4150 -0.1638
  481CHL      C 2582   4.456   1.480   2.652  0.1502  0.0671 -0.1459
  481CHL    CL1 2583   4.588   1.596   2.707  0.2563  0.7008  0.5222
  481CHL    CL2 2584   4.532   1.339   2.576  0.2837 -0.0642  0.3033
  481CHL      H 2585   4.389   1.534   2.584 -0.9443 -0.1514  0.7418
  482CHL     CL 2586   4.174   0.730   1.460 -0.0918 -0.1296  0.0573
  482CHL      C 2587   4.047   0.686   1.575  0.4516  0.1229  0.2740
  482CHL    CL1 2588   4.119   0.579   1.705  0.0729  0.1275  0.0053
  482CHL    CL2 2589   3.970   0.829   1.656  0.1395 -0.2972  0.3322
  482CHL      H 2590   3.961   0.632   1.534 -0.2401  0.6681  0.9936
  483CHL     CL 2591   3.129   2.082   4.304  0.0697 -0.0162 -0.0823
  483CHL      C 2592   3.123   2.230   4.207  0.0418 -0.0323  0.4104
  483CHL    CL1 2593   3.237   2.216   4.068 -0.1782  0.0985  0.3018
  483CHL    CL2 2594   2.957   2.247   4.153 -0.0657  0.1638  0.0007
  483CHL      H 2595   3.146   2.319   4.267 -0.1659  0.9557 -0.9371
  484CHL     CL 2596   0.362   3.873   1.080 -0.0674 -0.2733  0.4403
  484CHL      C 2597   0.250   3.842   0.943 -0.0918  0.2553 -0.1004
  484CHL    CL1 2598   0.228   3.672   0.886 -0.3723 -0.0508  0.1167
  484CHL    CL2 2599   0.083   3.899   0.994  0.3768  0.0688 -0.3833
  484CHL      H 2600   0.277   3.904   0.856 -1.3724  1.3155  0.2136
  485CHL     CL 2601   1.221   1.610   3.461  0.2659  0.1155  0.1549
  485CHL      C 2602   1.154   1.440   3.488 -0.4622 -0.1118 -0.0687
  485CHL    CL1 2603   0.993   1.424   3.405  0.4873  0.0354  0.0005
  485CHL    CL2 2604   1.271   1.319   3.420  0.1848  0.2075 -0.1408
  485CHL      H 2605   1.139   1.409   3.592 -1.5555 -2.8705 -0.9419
  486CHL     CL 2606   1.227   0.491   4.141 -0.1625  0.0071 -0.3751
  486CHL      C 2607   1.341   0.593   4.218 -0.4016 -0.4330  0.1735
  486CHL    CL1 2608   1.458   0.509   4.342  0.4348  0.5286  0.2212
  486CHL    CL2 2609   1.435   0.676   4.100 -0.1832  0.2342 -0.3728
  486CHL      H 2610   1.279   0.666   4.271 -1.3472 -1.4104  0.4664
  487CHL     CL 2611   2.635   0.002   0.596 -0.1031  0.1759  0.6138
  487CHL      C 2612   2.655   0.095   0.447 -0.7699  0.7456 -0.4845
  487CHL    CL1 2613   2.790   0.212   0.442 -0.2928  0.2200  0.2575
  487CHL    CL2 2614   2.695  -0.014   0.307 -0.1923  0.1938 -0.5372
  487CHL      H 2615   2.560   0.145   0.425 -1.0739  0.8921  1.0590
  488CHL     CL 2616   2.744   2.139   3.047 -0.0020  0.5253 -0.1007
  488CHL      C 2617   2.659   2.044   2.924 -1.0701  0.2851 -0.0665
  488CHL    CL1 2618   2.483   2.067   2.930 -0.1296 -0.1651 -0.4730
  488CHL    CL2 2619   2.731   2.092   2.762 -0.4438  0.0808 -0.0551
  488CHL      H 2620   2.681   1.942   2.956 -2.6656  0.2113  0.8667
  489CHL     CL 2621   0.250   0.870   0.062 -0.1770  0.0295 -0.2473
  489CHL      C 2622   0.294   0.896  -0.106  0.3406 -0.0735  0.8113
  489CHL    CL1 2623   0.448   0.805  -0.151  0.3253  0.2306 -0.0195
  489CHL    CL2 2624   0.161   0.847  -0.225 -0.0407  0.0424  0.1929
  489CHL      H 2625   0.318   1.003  -0.114 -4.4507  1.2047  0.7024
  490CHL     CL 2626   2.716   3.280   1.400  0.0269 -0.1197  0.1953
  490CHL      C 2627   2.571   3.250   1.304  0.0106 -0.3579 -0.2555
  490CHL    CL1 2628   2.596   3.321   1.138  0.0240  0.0053  0.1366
  490CHL    CL2 2629   2.541   3.076   1.291 -0.1531  0.2422  0.0968
  490CHL      H 2630   2.476   3.296   1.335  0.3423 -0.4194  0.8988
  491CHL     CL 2631   2.041   1.648   3.345 -0.1137 -0.6295  0.2584
  491CHL      C 2632   1.924   1.632   3.215  0.1973 -0.7149 -0.2228
  491CHL    CL1 2633   1.924   1.776   3.118  0.0543  0.0401 -0.0260
  491CHL    CL2 2634   1.935   1.474   3.127  0.1731  0.2861 -0.0516
  491CHL      H 2635   1.825   1.635   3.262  0.4702 -1.1524  0.3848
  492CHL     CL 2636   1.770   4.108   4.178 -0.4715 -0.4307  0.3472
  492CHL      C 2637   1.772   4.273   4.254 -0.1752  0.4139 -0.9425
  492CHL    CL1 2638   1.826   4.395   4.137 -0.1585 -0.0075  0.0018
  492CHL    CL2 2639   1.598   4.320   4.317  0.2479  0.2128 -0.4897
  492CHL      H 2640   1.847   4.277   4.333 -0.3503  0.8438 -0.7928
  493CHL     CL 2641   3.598   0.827   2.703 -0.3091 -0.2511 -0.1534
  493CHL      C 2642   3.696   0.866   2.848  0.2897  0.2186  0.1664
  493CHL    CL1 2643   3.844   0.953   2.809 -0.1925 -0.1415 -0.1605
  493CHL    CL2 2644   3.597   0.963   2.970 -0.0544  0.2141  0.1434
  493CHL      H 2645   3.732   0.779   2.903 -0.4869 -0.3173 -0.1439
  494CHL     CL 2646   2.179   3.425   0.928  0.3023  0.1543  0.2495
  494CHL      C 2647   2.170   3.564   0.820 -0.8639 -0.1785  0.8364
  494CHL    CL1 2648   2.291   3.686   0.890  0.0231 -0.1775 -0.3946
  494CHL    CL2 2649   2.201   3.514   0.651 -0.3429 -0.1287 -0.1498
  494CHL      H 2650   2.068   3.599   0.835 -0.7498  2.2140 -2.8116
  495CHL     CL 2651   0.247   2.471   2.698 -0.2128 -0.1954  0.3981
  495CHL      C 2652   0.112   2.582   2.648 -0.5364 -0.5386 -0.4025
  495CHL    CL1 2653   0.167   2.696   2.531  0.1190  0.5683 -0.2116
  495CHL    CL2 2654  -0.022   2.494   2.585  0.1671  0.3368  0.3654
  495CHL      H 2655   0.080   2.633   2.739  1.5748 -1.1445  0.7275
  496CHL     CL 2656   3.736   0.840   2.315 -0.1510  0.5205 -0.0823
  496CHL      C 2657   3.800   0.684   2.354 -0.2676  0.0497  0.4743
  496CHL    CL1 2658   3.822   0.567   2.213  0.2662 -0.0975  0.1042
  496CHL    CL2 2659   3.943   0.695   2.455  0.0643  0.3135 -0.2228
  496CHL      H 2660   3.725   0.641   2.421 -0.6413  0.4746  0.3311
  497CHL     CL 2661   1.320   3.385   3.426 -0.1823 -0.0303  0.1039
  497CHL      C 2662   1.231   3.256   3.514  1.1731  0.0988 -0.2368
  497CHL    CL1 2663   1.266   3.107   3.432 -0.4829  0.4969 -0.1087
  497CHL    CL2 2664   1.303   3.244   3.675  0.0235 -0.0693  0.1074
  497CHL      H 2665   1.123   3.274   3.517  1.1064  0.0443 -1.7918
  498CHL     CL 2666   1.387   3.917   3.304 -0.0133  0.1783  0.0515
  498CHL      C 2667   1.228   3.871   3.234  0.6622  0.2607 -0.7087
  498CHL    CL1 2668   1.215   3.915   3.061  0.5718 -0.4265 -0.2467
  498CHL    CL2 2669   1.190   3.697   3.244  0.0441  0.1007 -0.2904
  498CHL      H 2670   1.148   3.925   3.284 -0.2331 -2.1037  0.5943
  499CHL     CL 2671   3.522   0.024   0.220  0.0181  0.4401  0.3192
  499CHL      C 2672   3.399  -0.038   0.337 -0.8841 -0.2396 -0.1119
  499CHL    CL1 2673   3.319  -0.173   0.261  0.0391  0.0683 -0.1860
  499CHL    CL2 2674   3.473  -0.112   0.483 -0.4844  0.2288  0.0292
  499CHL      H 2675   3.329   0.037   0.375  1.2567  0.8086  2.0594
  500CHL     CL 2676   2.971   3.370   0.284 -0.2724 -0.0849 -0.2887
  500CHL      C 2677   3.067   3.342   0.433  0.0096  0.2061 -0.0621
  500CHL    CL1 2678   3.238   3.369   0.393  0.0534  0.4642 -0.1720
  500CHL    CL2 2679   3.030   3.457   0.564 -0.3885  0.0069  0.1907
  500CHL      H 2680   3.048   3.243   0.475 -1.5635  0.0219 -1.1444
  501CHL     CL 2681   0.320   2.023   2.786 -0.3518 -0.0276 -0.3271
  501CHL      C 2682   0.487   1.955   2.747 -0.3166  0.5021 -0.4466
  501CHL    CL1 2683   0.497   1.778   2.787  0.1855 -0.4867 -0.0050
  501CHL    CL2 2684   0.530   1.982   2.578 -0.1007 -0.0268  0.2222
  501CHL      H 2685   0.562   2.002   2.812 -0.7482 -1.0369  1.2555
  502CHL     CL 2686   4.159   1.342   1.373  0.2789  0.1463 -0.2263
  502CHL      C 2687   4.040   1.469   1.326 -0.0433 -0.2056  0.6913
  502CHL    CL1 2688   3.998   1.457   1.148 -0.0679 -0.3468 -0.2682
  502CHL    CL2 2689   3.884   1.444   1.420  0.0856  0.1855 -0.2673
  502CHL      H 2690   4.066   1.570   1.360 -1.2864  1.4736 -2.8346
  503CHL     CL 2691   0.388   0.009   3.196 -0.1738  0.4623  0.0944
  503CHL      C 2692   0.341   0.053   3.024  0.8589 -0.5920  0.0836
  503CHL    CL1 2693   0.448  -0.027   2.905 -0.7283 -0.4709  0.1640
  503CHL    CL2 2694   0.169   0.020   2.992  0.0444  0.2840  0.2884
  503CHL      H 2695   0.363   0.160   3.015 -0.1826 -0.3124  0.7047
  504CHL     CL 2696   1.856   0.873   1.697 -0.3235 -0.1892  0.1174
  504CHL      C 2697   2.006   0.780   1.756  0.2435  0.1300 -0.6195
  504CHL    CL1 2698   2.061   0.866   1.914  0.3326 -0.1105  0.0247
  504CHL    CL2 2699   2.142   0.808   1.633 -0.3037  0.0044 -0.2908
  504CHL      H 2700   1.978   0.675   1.755  0.6983  0.0065 -1.1851
  505CHL     CL 2701   1.461   4.257   0.967 -0.1367  0.2849 -0.0159
  505CHL      C 2702   1.330   4.151   1.029 -0.4844 -0.2440 -0.7036
  505CHL    CL1 2703   1.190   4.255   1.079  0.2900 -0.5135 -0.3598
  505CHL    CL2 2704   1.264   4.031   0.909  0.0810 -0.0037 -0.2197
  505CHL      H 2705   1.367   4.104   1.120 -0.3797  0.8896 -0.1490
  506CHL     CL 2706   2.786   0.684   2.355 -0.2432 -0.0276 -0.6269
  506CHL      C 2707   2.795   0.663   2.174 -0.2839  0.4049  0.3961
  506CHL    CL1 2708   2.944   0.567   2.146 -0.0004 -0.3798  0.2180
  506CHL    CL2 2709   2.631   0.591   2.100  0.1317  0.2351 -0.0282
  506CHL      H 2710   2.809   0.762   2.130 -1.8618  1.0946  1.3477
  507CHL     CL 2711   4.022   1.558   3.353 -0.4834 -0.1477 -0.0090
  507CHL      C 2712   4.112   1.398   3.348  0.6872 -0.2456 -0.2448
  507CHL    CL1 2713   3.998   1.272   3.292  0.1629  0.3824 -0.0876
  507CHL    CL2 2714   4.252   1.412   3.235 -0.4766 -0.0006  0.1960
  507CHL      H 2715   4.156   1.373   3.444  0.5808 -1.2320 -0.4466
  508CHL     CL 2716   3.044   3.066   2.654 -0.3355 -0.1976 -0.4891
  508CHL      C 2717   3.155   3.205   2.654  0.3772 -0.1143 -0.3556
  508CHL    CL1 2718   3.312   3.141   2.569  0.1329  0.2878 -0.0952
  508CHL    CL2 2719   3.088   3.354   2.577  0.3124  0.1961 -0.2429
  508CHL      H 2720   3.168   3.231   2.760  2.5205  1.1130 -0.8609
  509CHL     CL 2721   0.461   1.588   1.778 -0.3371 -0.0755 -0.4298
  509CHL      C 2722   0.493   1.704   1.915 -0.0516  0.7931 -0.0645
  509CHL    CL1 2723   0.560   1.864   1.857  0.1450 -0.0309 -0.0110
  509CHL    CL2 2724   0.341   1.737   1.994  0.1811  0.3476 -0.1562
  509CHL      H 2725   0.562   1.656   1.985 -1.9908 -2.6801 -0.3227
  510CHL     CL 2726   2.581   3.721   2.219 -0.0084  0.1165  0.2355
  510CHL      C 2727   2.671   3.700   2.061 -0.0483 -0.3053  1.1449
  510CHL    CL1 2728   2.638   3.537   1.977 -0.2282  0.2643 -0.0669
  510CHL    CL2 2729   2.628   3.831   1.942 -0.1391  0.4163 -0.1574
  510CHL      H 2730   2.779   3.708   2.081  0.4777  0.4505 -1.4755
  511CHL     CL 2731   3.283   1.542   1.961  0.0044  0.0577  0.1168
  511CHL      C 2732   3.149   1.661   1.961 -0.2452 -0.4866  0.8819
  511CHL    CL1 2733   3.218   1.814   2.020  0.1919  0.3271  0.6628
  511CHL    CL2 2734   3.064   1.665   1.802  0.1061 -0.4260 -0.4372
  511CHL      H 2735   3.075   1.625   2.032  0.1054  0.1632  1.5925
  512CHL     CL 2736   0.430   0.689   0.346 -0.0492  0.0593 -0.7356
  512CHL      C 2737   0.488   0.534   0.419 -0.4115 -0.1283  0.2364
  512CHL    CL1 2738   0.339   0.423   0.467  0.0854  0.2442 -0.1314
  512CHL    CL2 2739   0.573   0.431   0.300  0.3125 -0.3624  0.0119
  512CHL      H 2740   0.548   0.547   0.510 -1.3326 -1.7700  1.1087
  513CHL     CL 2741   1.560   0.931   3.532  0.0290 -0.7290  0.4593
  513CHL      C 2742   1.540   1.016   3.366 -0.2729  0.2503 -0.2682
  513CHL    CL1 2743   1.374   1.003   3.307  0.4330 -0.2328  0.0207
  513CHL    CL2 2744   1.593   1.191   3.365 -0.2374 -0.2501  0.1383
  513CHL      H 2745   1.600   0.961   3.293 -0.5133 -0.2058 -0.1209
  514CHL     CL 2746   3.417   0.346   2.157 -0.0861 -0.2805  0.2877
  514CHL      C 2747   3.320   0.477   2.240 -0.5098 -0.1312 -0.6364
  514CHL    CL1 2748   3.240   0.395   2.378 -0.0998 -0.2518 -0.0302
  514CHL    CL2 2749   3.424   0.618   2.284  0.3057  0.4658  0.0105
  514CHL      H 2750   3.236   0.510   2.178 -0.2265  1.8672 -0.0178
  515CHL     CL 2751   4.013   1.866   0.687  0.0382 -0.2475 -0.0122
  515CHL      C 2752   3.936   1.755   0.801 -0.2895  0.5588 -0.0726
  515CHL    CL1 2753   3.927   1.587   0.725  0.6662  0.0503  0.0727
  515CHL    CL2 2754   4.018   1.757   0.957 -0.0807 -0.0188 -0.1667
  515CHL      H 2755   3.836   1.797   0.819 -0.2786  0.8815 -0.7355
  516CHL     CL 2756   1.388   1.033   0.349 -0.1829 -0.6739  0.1381
  516CHL      C 2757   1.314   0.959   0.501  0.3627 -0.2415 -0.0807
  516CHL    CL1 2758   1.392   1.001   0.653 -0.1733  0.2062  0.1513
  516CHL    CL2 2759   1.136   0.995   0.508  0.6499 -0.4653  0.2571
  516CHL      H 2760   1.323   0.850   0.494 -0.3351 -0.3286  0.3359
  517CHL     CL 2761   3.543   1.537   1.666 -0.1505 -0.1312  0.1786
  517CHL      C 2762   3.614   1.554   1.826  1.2154  0.3228  0.1880
  517CHL    CL1 2763   3.681   1.389   1.860  0.5286 -0.1033  0.0670
  517CHL    CL2 2764   3.745   1.685   1.822 -0.1667 -0.0385 -0.1815
  517CHL      H 2765   3.544   1.591   1.902  2.3657 -1.3858  2.2120
  518CHL     CL 2766   2.629   2.427   0.031 -0.2233  0.3222 -0.1501
  518CHL      C 2767   2.718   2.574   0.079  0.3751  0.4824  0.0260
  518CHL    CL1 2768   2.891   2.555   0.053 -0.2714  0.1009 -0.2562
  518CHL    CL2 2769   2.647   2.723  -0.009  0.4553 -0.3017  0.0858
  518CHL      H 2770   2.698   2.591   0.185  1.1888 -0.0454  0.2696
  519CHL     CL 2771   2.980   1.118   3.603  0.0876 -0.1066  0.2190
  519CHL      C 2772   3.112   1.218   3.536  0.2338 -0.0688 -0.5807
  519CHL    CL1 2773   3.050   1.382   3.498 -0.1096 -0.3255  0.2884
  519CHL    CL2 2774   3.241   1.224   3.657  0.0451 -0.0759 -0.3825
  519CHL      H 2775   3.146   1.169   3.444 -2.3086  1.3709 -2.4152
  520CHL     CL 2776   1.911   3.294   1.799  0.4888  0.1979 -0.0074
  520CHL      C 2777   1.951   3.123   1.874 -0.1234 -0.3510  0.3414
  520CHL    CL1 2778   2.013   3.016   1.751  0.0073  0.6111  0.3436
  520CHL    CL2 2779   2.069   3.134   2.010  0.0832  0.2212  0.2748
  520CHL      H 2780   1.859   3.078   1.911 -0.7977  0.2626 -0.5306
  521CHL     CL 2781   2.429   2.172   1.142 -0.0955  0.0519 -0.0878
  521CHL      C 2782   2.433   2.295   1.010 -0.0580 -0.5328  0.2179
  521CHL    CL1 2783   2.395   2.204   0.860 -0.0823  0.0506 -0.1013
  521CHL    CL2 2784   2.308   2.424   1.028  0.0969  0.1281  0.2777
  521CHL      H 2785   2.532   2.336   0.987  0.2857 -0.8092  1.1359
  522CHL     CL 2786   1.522   3.177   0.882  0.2087 -0.0297 -0.0098
  522CHL      C 2787   1.403   3.042   0.878 -0.3933 -0.1092 -0.4584
  522CHL    CL1 2788   1.467   2.886   0.924  0.2789 -0.1145  0.0400
  522CHL    CL2 2789   1.257   3.087   0.976  0.3223 -0.0205  0.0247
  522CHL      H 2790   1.376   3.038   0.772 -0.1659 -2.9632 -0.4969
  523CHL     CL 2791   0.491   3.741   2.053 -0.0978 -0.1730  0.1873
  523CHL      C 2792   0.342   3.780   1.961 -0.3764  0.6096 -0.0967
  523CHL    CL1 2793   0.251   3.897   2.067 -0.3709  0.3940 -0.1656
  523CHL    CL2 2794   0.377   3.859   1.814 -0.3329 -0.1060  0.3847
  523CHL      H 2795   0.289   3.686   1.945 -3.1231  1.8494  1.1053
  524CHL     CL 2796   2.943   2.499   2.289  0.1005 -0.4323 -0.4660
  524CHL      C 2797   3.071   2.609   2.215 -0.3250 -0.5983 -0.7747
  524CHL    CL1 2798   3.002   2.646   2.054 -0.0096 -0.2991  0.7347
  524CHL    CL2 2799   3.114   2.753   2.308 -0.2167  0.0769 -0.3756
  524CHL      H 2800   3.149   2.533   2.202  0.3342 -0.1244  0.3397
  525CHL     CL 2801   0.879   3.353   4.378  0.1802  0.2454  0.2206
  525CHL      C 2802   0.988   3.416   4.511  0.7355  0.4879 -0.3102
  525CHL    CL1 2803   1.064   3.572   4.471  0.1960 -0.1701  0.3837
  525CHL    CL2 2804   0.908   3.428   4.668 -0.6177  0.1366 -0.1287
  525CHL      H 2805   1.069   3.343   4.515 -1.2075 -1.7395  1.5289
  526CHL     CL 2806   4.149   4.391   4.293 -0.0599 -0.2569 -0.1109
  526CHL      C 2807   4.301   4.334   4.369 -0.5560 -0.0914  0.3815
  526CHL    CL1 2808   4.437   4.359   4.247 -0.0787  0.1620  0.0436
  526CHL    CL2 2809   4.333   4.424   4.523 -0.2098 -0.1431  0.5707
  526CHL      H 2810   4.284   4.228   4.390  1.2400 -0.3886  0.5364
  527CHL     CL 2811   0.572   1.609   4.063  0.4603 -0.3735 -0.0250
  527CHL      C 2812   0.468   1.613   4.214  0.0031 -0.1471 -0.1735
  527CHL    CL1 2813   0.563   1.541   4.336 -0.1659  0.2652 -0.4059
  527CHL    CL2 2814   0.403   1.780   4.256 -0.2509  0.0056  0.3201
  527CHL      H 2815   0.383   1.552   4.181 -1.6876  1.4227  1.0539
  528CHL     CL 2816   0.625   3.527   0.646  0.3089 -0.4138  0.2425
  528CHL      C 2817   0.595   3.394   0.532  0.2236 -0.7719  0.2107
  528CHL    CL1 2818   0.728   3.274   0.545  0.2764 -0.6455  0.4533
  528CHL    CL2 2819   0.430   3.330   0.561  0.3578 -0.0858  0.1125
  528CHL      H 2820   0.594   3.424   0.427  0.7936 -1.2219  0.0732
  529CHL     CL 2821   0.329   3.181   1.702 -0.0170  0.5124  0.0533
  529CHL      C 2822   0.298   3.353   1.768  0.7017  0.2887  0.5226
  529CHL    CL1 2823   0.243   3.363   1.936  0.2631 -0.2090 -0.2108
  529CHL    CL2 2824   0.445   3.456   1.746 -0.3454  0.2930  0.2178
  529CHL      H 2825   0.210   3.396   1.720 -0.4985 -0.7964  1.6618
  530CHL     CL 2826   2.696   2.135   2.379 -0.1176 -0.0993  0.0256
  530CHL      C 2827   2.709   2.160   2.206  0.0712 -0.3034  0.0320
  530CHL    CL1 2828   2.628   2.025   2.122 -0.1162  0.2714 -0.1584
  530CHL    CL2 2829   2.627   2.316   2.156  0.2398  0.2739  0.3734
  530CHL      H 2830   2.814   2.162   2.177  0.1891  1.8011  0.4499
  531CHL     CL 2831   1.824   1.903   3.476  0.5042 -0.0264  0.2149
  531CHL      C 2832   1.647   1.871   3.491 -0.0063 -0.3712  0.3193
  531CHL    CL1 2833   1.597   1.744   3.371  0.6560 -0.2750 -0.1294
  531CHL    CL2 2834   1.594   1.827   3.649  0.2466 -0.2871 -0.0280
  531CHL      H 2835   1.588   1.960   3.471  0.5046 -0.2802 -0.8520
  532CHL     CL 2836   4.020   1.940   4.321  0.1199  0.4760  0.3287
  532CHL      C 2837   3.852   1.950   4.379  0.0834  0.2583  0.1081
  532CHL    CL1 2838   3.791   2.126   4.401  0.1799  0.3225  0.3407
  532CHL    CL2 2839   3.746   1.854   4.269  0.1325  0.1562 -0.1922
  532CHL      H 2840   3.855   1.906   4.479  1.0930  1.6988  0.7465
  533CHL     CL 2841   0.744   0.895   3.039 -0.1817 -0.3051  0.3456
  533CHL      C 2842   0.809   0.761   2.947  0.1886 -0.4884  0.2644
  533CHL    CL1 2843   0.955   0.829   2.872  0.3404  0.6308 -0.3099
  533CHL    CL2 2844   0.846   0.615   3.061 -0.0769  0.3926  0.2383
  533CHL      H 2845   0.737   0.728   2.872 -0.7782 -1.0667  1.4085
  534CHL     CL 2846   1.847   1.460   0.289 -0.0793 -0.0092 -0.1130
  534CHL      C 2847   1.821   1.316   0.393  0.6590  0.0070 -0.0415
  534CHL    CL1 2848   1.644   1.298   0.412  0.3221  0.4801 -0.1758
  534CHL    CL2 2849   1.870   1.166   0.312 -0.1383  0.1528  0.5729
  534CHL      H 2850   1.878   1.321   0.487  1.8860 -3.0468 -0.5007
  535CHL     CL 2851   2.468   0.771   3.949 -0.0964  0.0149  0.2546
  535CHL      C 2852   2.309   0.824   3.886  0.2253 -0.1620 -0.2200
  535CHL    CL1 2853   2.309   0.994   3.842 -0.1574  0.0666 -0.3744
  535CHL    CL2 2854   2.246   0.720   3.746 -0.3283 -0.1350 -0.0909
  535CHL      H 2855   2.247   0.814   3.975  1.2629 -0.4825  0.4805
  536CHL     CL 2856   4.262   1.520   0.779 -0.4713  0.0922 -0.3142
  536CHL      C 2857   4.338   1.429   0.909 -0.2230 -0.0081  0.0932
  536CHL    CL1 2858   4.253   1.273   0.935  0.0341 -0.3955  0.3473
  536CHL    CL2 2859   4.502   1.409   0.854  0.0048 -0.2479  0.2082
  536CHL      H 2860   4.334   1.488   1.001  1.9015 -0.5167  0.5642
  537CHL     CL 2861   1.320   3.967   1.779 -0.2894 -0.0578 -0.5078
  537CHL      C 2862   1.251   3.852   1.892  0.5341  0.1608 -0.9088
  537CHL    CL1 2863   1.079   3.830   1.855  0.1181  0.1705 -0.0231
  537CHL    CL2 2864   1.318   3.685   1.871  0.0836 -0.5781 -0.2675
  537CHL      H 2865   1.248   3.885   1.996 -1.7036 -0.6503 -0.6419
  538CHL     CL 2866   2.733   3.448   2.524 -0.1806  0.1976  0.0901
  538CHL      C 2867   2.732   3.570   2.645 -0.8298  0.3456 -0.2721
  538CHL    CL1 2868   2.892   3.655   2.628 -0.2541 -0.0011 -0.1975
  538CHL    CL2 2869   2.585   3.675   2.627  0.3809 -0.0577  0.0062
  538CHL      H 2870   2.730   3.506   2.733  0.0306  0.3334 -0.2531
  539CHL     CL 2871   0.050   0.356   0.242  0.2716  0.1688 -0.1709
  539CHL      C 2872  -0.028   0.431   0.398 -0.4666  0.4581 -0.1211
  539CHL    CL1 2873  -0.125   0.574   0.350  0.4010  0.0336  0.2143
  539CHL    CL2 2874  -0.154   0.318   0.474 -0.3839  0.0397 -0.1970
  539CHL      H 2875   0.052   0.467   0.463 -1.5465  0.0191  1.4866
  540CHL     CL 2876   2.282   0.495   1.299 -0.1663  0.0030  0.3819
  540CHL      C 2877   2.289   0.358   1.169  0.0496  0.4281 -1.0420
  540CHL    CL1 2878   2.447   0.270   1.216 -0.0946  0.1750 -0.1143
  540CHL    CL2 2879   2.159   0.229   1.189 -0.2046 -0.5720  0.0243
  540CHL      H 2880   2.309   0.381   1.064  2.1266  0.3271 -0.7137
  541CHL     CL 2881   1.540   1.570   2.087 -0.2929 -0.1975 -0.1088
  541CHL      C 2882   1.558   1.523   2.256  0.7780  0.1882  0.0981
  541CHL    CL1 2883   1.500   1.640   2.382  0.1574 -0.1954 -0.0569
  541CHL    CL2 2884   1.478   1.360   2.272  0.3974 -0.3880  0.1283
  541CHL      H 2885   1.667   1.515   2.268  1.2091  1.6248 -2.1594
  542CHL     CL 2886   3.844   3.478   1.746  0.4426 -0.0129 -0.0242
  542CHL      C 2887   3.733   3.409   1.867  0.0870  0.7303 -0.2909
  542CHL    CL1 2888   3.758   3.488   2.027  0.2006 -0.1297 -0.1138
  542CHL    CL2 2889   3.568   3.437   1.817 -0.0745  0.1150  0.4808
  542CHL      H 2890   3.756   3.302   1.863 -1.1308  0.4789 -3.4446
  543CHL     CL 2891   3.586   3.414   3.677  0.0727  0.3546 -0.4985
  543CHL      C 2892   3.586   3.441   3.861  0.7748  0.3064  0.1666
  543CHL    CL1 2893   3.487   3.584   3.905 -0.2671  0.2242  0.1239
  543CHL    CL2 2894   3.525   3.289   3.936  0.0839  0.1607  0.2595
  543CHL      H 2895   3.690   3.467   3.886  0.2591 -0.3013  3.3819
  544CHL     CL 2896   1.638   1.649   1.580  0.1083  0.0653  0.4407
  544CHL      C 2897   1.562   1.652   1.413 -0.1043 -0.5561 -0.1101
  544CHL    CL1 2898   1.562   1.812   1.334 -0.1755 -0.5345  0.3861
  544CHL    CL2 2899   1.631   1.523   1.296  0.4471 -0.0517 -0.3741
  544CHL      H 2900   1.458   1.627   1.434 -0.3474  1.1967  0.9276
  545CHL     CL 2901   3.859   2.334   2.917  0.0388  0.2358 -0.1958
  545CHL      C 2902   4.002   2.448   2.958  0.0297  0.6547  0.6811
  545CHL    CL1 2903   4.047   2.444   3.134 -0.2979 -0.1770  0.2648
  545CHL    CL2 2904   4.154   2.395   2.869 -0.3087  0.3881 -0.1005
  545CHL      H 2905   3.974   2.551   2.933 -0.1981  0.3563 -0.3401
  546CHL     CL 2906   3.571   0.500   0.622  0.1278  0.0201  0.0508
  546CHL      C 2907   3.430   0.399   0.649 -0.8178 -0.7043 -0.1749
  546CHL    CL1 2908   3.440   0.251   0.537  0.3390  0.1695  0.0443
  546CHL    CL2 2909   3.433   0.360   0.832 -0.0458  0.2617  0.1124
  546CHL      H 2910   3.342   0.458   0.622 -1.0762 -1.4293 -0.9736
  547CHL     CL 2911   1.148   1.017   2.649 -0.4134 -0.3345  0.2820
  547CHL      C 2912   1.237   1.130   2.755  0.6285  0.2810 -0.4244
  547CHL    CL1 2913   1.121   1.265   2.799 -0.0814  0.3216  0.1523
  547CHL    CL2 2914   1.308   1.044   2.900 -0.3605 -0.0338 -0.0639
  547CHL      H 2915   1.315   1.167   2.688  0.3486 -0.4292 -1.1584
  548CHL     CL 2916   2.552   2.463   0.690 -0.1414  0.2215 -0.2413
  548CHL      C 2917   2.630   2.343   0.582 -0.4187 -0.1185 -0.5439
  548CHL    CL1 2918   2.619   2.399   0.414 -0.1300 -0.3132  0.2867
  548CHL    CL2 2919   2.802   2.310   0.621  0.0209 -0.0040 -0.8832
  548CHL      H 2920   2.581   2.246   0.595 -0.2056 -0.0993  0.5491
  549CHL     CL 2921   2.829   1.630   4.106 -0.2639  0.1420 -0.2708
  549CHL      C 2922   2.676   1.691   4.174  0.2557  0.0157 -0.3802
  549CHL    CL1 2923   2.575   1.550   4.217 -0.0801  0.0087 -0.5473
  549CHL    CL2 2924   2.710   1.803   4.317 -0.0954 -0.2969  0.0316
  549CHL      H 2925   2.640   1.749   4.089  1.8718 -0.5597 -1.4893
  550CHL     CL 2926   2.402   2.951   1.614 -0.1368  0.0939 -0.3937
  550CHL      C 2927   2.503   2.933   1.759  0.2262 -0.6069 -0.8715
  550CHL    CL1 2928   2.654   3.031   1.726 -0.2366 -0.2237  0.0419
  550CHL    CL2 2929   2.417   3.000   1.903 -0.4891  0.0251 -0.1905
  550CHL      H 2930   2.523   2.826   1.773 -2.4800 -1.0758 -0.0129
  551CHL     CL 2931   0.292   0.058   0.161 -0.0546 -0.3806 -0.0400
  551CHL      C 2932   0.346   0.119   0.323  0.3199 -0.1764  0.4592
  551CHL    CL1 2933   0.224   0.080   0.460  0.2115 -0.3880  0.4296
  551CHL    CL2 2934   0.495   0.031   0.360 -0.1925 -0.0121 -0.1867
  551CHL      H 2935   0.349   0.228   0.315  1.2252 -0.0093  2.4494
  552CHL     CL 2936   2.377   0.642   0.318  0.2919  0.1925  0.3524
  552CHL      C 2937   2.515   0.601   0.208  0.5798 -0.4361  0.0406
  552CHL    CL1 2938   2.611   0.754   0.170 -0.1091 -0.1930 -0.1242
  552CHL    CL2 2939   2.625   0.489   0.289 -0.4526  0.0484 -0.2950
  552CHL      H 2940   2.473   0.561   0.116 -2.4779  0.4848  0.9127
  553CHL     CL 2941   0.482   3.436   2.411 -0.1485  0.1983  0.0150
  553CHL      C 2942   0.436   3.611   2.391 -0.0600 -0.6535 -0.9715
  553CHL    CL1 2943   0.280   3.602   2.300  0.2044 -0.0932  0.2343
  553CHL    CL2 2944   0.404   3.706   2.544 -0.1312  0.1747  0.6047
  553CHL      H 2945   0.506   3.666   2.327 -0.3220 -0.5410 -1.1643
  554CHL     CL 2946   4.196   3.124   3.024 -0.3827 -0.2999  0.0761
  554CHL      C 2947   4.298   2.988   3.081  0.0797  0.4838 -0.2563
  554CHL    CL1 2948   4.245   2.842   2.985  0.8451  0.1861  0.1130
  554CHL    CL2 2949   4.470   3.016   3.050 -0.2346 -0.5499  0.1352
  554CHL      H 2950   4.277   2.969   3.187  0.5429  2.8393  0.3239
  555CHL     CL 2951   1.686   0.648   2.531 -0.4320 -0.1786  0.0566
  555CHL      C 2952   1.535   0.578   2.600 -0.2389  0.5583 -0.2101
  555CHL    CL1 2953   1.564   0.514   2.765 -0.2835  0.1230  0.0878
  555CHL    CL2 2954   1.406   0.706   2.612  0.3011  0.4283 -0.0055
  555CHL      H 2955   1.497   0.494   2.541 -0.9114  0.3888  0.4588
  556CHL     CL 2956   4.296   0.193   2.798  0.0747  0.2424 -0.0624
  556CHL      C 2957   4.357   0.076   2.666 -0.1758  0.1776  0.8920
  556CHL    CL1 2958   4.223  -0.034   2.626 -0.2983 -0.0719  0.5114
  556CHL    CL2 2959   4.411   0.163   2.522 -0.1960 -0.2450  0.5336
  556CHL      H 2960   4.440   0.016   2.705  0.5100 -0.7336 -1.7192
  557CHL     CL 2961   3.693   1.325   4.264 -0.1026 -0.0942 -0.0305
  557CHL      C 2962   3.674   1.488   4.195 -0.3624  0.5509 -0.3118
  557CHL    CL1 2963   3.767   1.501   4.043  0.1596 -0.0845 -0.2940
  557CHL    CL2 2964   3.497   1.519   4.151 -0.0254  0.3449 -0.4405
  557CHL      H 2965   3.715   1.561   4.265  0.0638  0.0337 -0.0104
  558CHL     CL 2966   4.300   3.295   2.068 -0.1916 -0.0993 -0.0695
  558CHL      C 2967   4.217   3.126   2.053 -0.3757 -0.7147 -0.4029
  558CHL    CL1 2968   4.221   3.049   2.219  0.1013  0.0491 -0.2125
  558CHL    CL2 2969   4.047   3.150   2.006  0.3999  0.3731  0.3662
  558CHL      H 2970   4.260   3.064   1.974 -1.0378 -0.1681 -1.2073
  559CHL     CL 2971   3.834   4.113   0.497  0.7689  0.0263 -0.2588
  559CHL      C 2972   3.820   4.210   0.345 -0.0114  0.2327 -0.5614
  559CHL    CL1 2973   3.981   4.237   0.271  0.2970 -0.0114 -0.1562
  559CHL    CL2 2974   3.714   4.131   0.217 -0.3253  0.0950 -0.0196
  559CHL      H 2975   3.779   4.301   0.392  0.9944  1.2813 -1.6699
  560CHL     CL 2976   2.834   3.609   4.209 -0.3774 -0.1202  0.1236
  560CHL      C 2977   2.858   3.524   4.364  0.2159 -0.0004 -0.1273
  560CHL    CL1 2978   2.838   3.635   4.495  0.0563 -0.3393 -0.3803
  560CHL    CL2 2979   2.723   3.398   4.376  0.1162 -0.4835 -0.0740
  560CHL      H 2980   2.955   3.473   4.364  0.1888 -0.0606  0.5767
  561CHL     CL 2981   2.186   1.528   0.106 -0.0566  0.0661  0.2833
  561CHL      C 2982   2.367   1.558   0.130  0.1860  0.5449 -0.4339
  561CHL    CL1 2983   2.400   1.733   0.105  0.2664 -0.1254 -0.5587
  561CHL    CL2 2984   2.406   1.519   0.305  0.7104 -0.0597  0.0775
  561CHL      H 2985   2.434   1.502   0.065 -2.9583 -1.3731 -2.3077
  562CHL     CL 2986   0.477   2.127   4.375  0.3785  0.2464 -0.0376
  562CHL      C 2987   0.451   2.277   4.275 -0.3594 -0.4504  0.2740
  562CHL    CL1 2988   0.408   2.230   4.119 -0.0606 -0.0397  0.3140
  562CHL    CL2 2989   0.321   2.376   4.346  0.1851  0.2368  0.1280
  562CHL      H 2990   0.547   2.329   4.280 -0.8680  0.4475  3.4469
  563CHL     CL 2991   1.161   0.484   0.925 -0.1593  0.3985 -0.4772
  563CHL      C 2992   1.118   0.648   0.967  0.2146  0.2405  0.0898
  563CHL    CL1 2993   1.177   0.775   0.850 -0.1797 -0.4661 -0.1943
  563CHL    CL2 2994   0.936   0.655   0.984 -0.3577  0.0315  0.1425
  563CHL      H 2995   1.171   0.680   1.057 -1.6129  1.4146  0.8222
  564CHL     CL 2996   3.343   2.607   3.112  0.0219 -0.1062 -0.0391
  564CHL      C 2997   3.513   2.645   3.167  0.7888 -0.4371  0.2538
  564CHL    CL1 2998   3.534   2.558   3.322 -0.1489 -0.2719 -0.0504
  564CHL    CL2 2999   3.635   2.582   3.043 -0.0900 -0.1711 -0.0048
  564CHL      H 3000   3.517   2.753   3.187  1.5180 -0.8441  2.6686
  565CHL     CL 3001   3.375   0.787   0.140  0.0254 -0.2720 -0.3492
  565CHL      C 3002   3.395   0.886   0.292  0.1529 -0.0349 -0.2299
  565CHL    CL1 3003   3.409   0.788   0.445 -0.0189 -0.0979  0.0174
  565CHL    CL2 3004   3.249   0.986   0.293 -0.2308 -0.0243 -0.2408
  565CHL      H 3005   3.472   0.963   0.286 -2.1324  2.3432 -1.0608
  566CHL     CL 3006   4.120   1.406   0.439 -0.4260 -0.3017 -0.1264
  566CHL      C 3007   4.136   1.223   0.450 -0.2689 -0.2964 -0.1344
  566CHL    CL1 3008   3.997   1.159   0.545 -0.1219  0.1701 -0.3755
  566CHL    CL2 3009   4.146   1.164   0.276 -0.1211 -0.2922 -0.1575
  566CHL      H 3010   4.227   1.194   0.503 -0.5051  0.2119  0.5548
  567CHL     CL 3011   0.811   1.409   0.342  0.0352 -0.0413  0.5417
  567CHL      C 3012   0.755   1.579   0.376  0.2000 -0.2422 -0.9621
  567CHL    CL1 3013   0.751   1.607   0.553 -0.0459 -0.6650 -0.1857
  567CHL    CL2 3014   0.863   1.695   0.290 -0.3460 -0.5218  0.3656
  567CHL      H 3015   0.653   1.588   0.338  0.0855  3.8582 -0.1484
  568CHL     CL 3016   1.515   1.644   3.012 -0.2570 -0.3758  0.2367
  568CHL      C 3017   1.588   1.500   2.933  0.2262 -0.0944 -0.4953
  568CHL    CL1 3018   1.623   1.373   3.051 -0.3813 -0.0617 -0.1611
  568CHL    CL2 3019   1.470   1.408   2.814  0.1274  0.5704  0.2541
  568CHL      H 3020   1.679   1.530   2.879  0.8836 -0.5533  0.3243
  569CHL     CL 3021   0.433   3.374   3.882  0.3648  0.0207  0.1071
  569CHL      C 3022   0.419   3.205   3.938 -0.3087 -0.1986  0.0915
  569CHL    CL1 3023   0.400   3.204   4.121 -0.3035 -0.2212  0.1027
  569CHL    CL2 3024   0.278   3.129   3.851 -0.1220  0.0056 -0.1208
  569CHL      H 3025   0.508   3.146   3.915  0.5258  0.2599  1.9744
  570CHL     CL 3026   0.955   2.931   4.316 -0.2306 -0.1452  0.2592
  570CHL      C 3027   0.774   2.918   4.309 -0.1553 -0.0524  0.1524
  570CHL    CL1 3028   0.697   2.978   4.459 -0.2619 -0.0283 -0.1347
  570CHL    CL2 3029   0.712   3.014   4.175 -0.3364  0.0482  0.0236
  570CHL      H 3030   0.740   2.815   4.292 -1.1365  0.1916  0.5736
  571CHL     CL 3031   0.245   0.810   1.925  0.1988 -0.0996 -0.3094
  571CHL      C 3032   0.123   0.828   1.807  0.3300 -0.1782 -0.1024
  571CHL    CL1 3033  -0.017   0.915   1.867  0.1923 -0.3595  0.1208
  571CHL    CL2 3034   0.192   0.907   1.656  0.3292 -0.0479  0.0712
  571CHL      H 3035   0.091   0.724   1.788 -0.0774 -0.1994  0.6487
  572CHL     CL 3036   1.957   1.414   2.282  0.3390 -0.2232 -0.6781
  572CHL      C 3037   1.944   1.576   2.381 -0.5751  0.8456  0.0335
  572CHL    CL1 3038   2.004   1.564   2.546  0.3475  0.0007 -0.0203
  572CHL    CL2 3039   2.040   1.703   2.302  0.4037 -0.1139 -0.5720
  572CHL      H 3040   1.841   1.613   2.388 -0.8666  0.4567 -1.7100
  573CHL     CL 3041   3.145   0.194   0.946 -0.5344 -0.1960 -0.4872
  573CHL      C 3042   3.151   0.052   0.833  0.9028 -0.0807 -0.7220
  573CHL    CL1 3043   3.038   0.063   0.694 -0.5545 -0.0060 -0.0764
  573CHL    CL2 3044   3.313  -0.009   0.776 -0.3466  0.2323 -0.2773
  573CHL      H 3045   3.111  -0.031   0.893  0.4101  0.4989 -0.2310
  574CHL     CL 3046   3.710   1.042   3.461 -0.0989 -0.2552  0.2200
  574CHL      C 3047   3.716   0.969   3.621 -0.3905  0.3265 -0.4817
  574CHL    CL1 3048   3.745   1.103   3.735  0.0980  0.3766 -0.0553
  574CHL    CL2 3049   3.553   0.891   3.657  0.2744  0.0001  0.1662
  574CHL      H 3050   3.801   0.901   3.630 -1.1928 -0.6811 -0.2469
  575CHL     CL 3051   1.312   0.971   3.782  0.3587 -0.0409  0.2891
  575CHL      C 3052   1.250   1.109   3.680 -0.2669  0.2445  0.3404
  575CHL    CL1 3053   1.088   1.077   3.613  0.1047  0.1737  0.1898
  575CHL    CL2 3054   1.239   1.259   3.784  0.2998  0.1230 -0.0069
  575CHL      H 3055   1.322   1.118   3.598 -1.2702 -1.6664 -0.8028
  576CHL     CL 3056   0.866   4.206   1.347 -0.0492 -0.2447 -0.1266
  576CHL      C 3057   0.696   4.163   1.293 -0.2939 -0.5397  0.2641
  576CHL    CL1 3058   0.586   4.246   1.408 -0.1744  0.1947 -0.1344
  576CHL    CL2 3059   0.674   4.213   1.121 -0.0569  0.2920 -0.4852
  576CHL      H 3060   0.690   4.054   1.301  0.5396 -0.6183 -0.1002
  577CHL     CL 3061   3.054   0.880   3.333  0.3379  0.0609 -0.2132
  577CHL      C 3062   3.217   0.843   3.384 -0.4548 -0.4030  0.1182
  577CHL    CL1 3063   3.320   0.993   3.398  0.4739 -0.1454  0.0646
  577CHL    CL2 3064   3.217   0.768   3.546  0.4054 -0.2297 -0.3390
  577CHL      H 3065   3.269   0.800   3.298  1.5262  2.0930 -0.0519
  578CHL     CL 3066   3.854   1.574   3.052 -0.2505  0.0344 -0.2605
  578CHL      C 3067   3.888   1.426   2.957  0.0603  0.4150  0.2627
  578CHL    CL1 3068   3.794   1.426   2.799  0.3311 -0.2004 -0.0230
  578CHL    CL2 3069   4.065   1.398   2.954  0.1460  0.0914 -0.0726
  578CHL      H 3070   3.848   1.336   3.005  0.0058 -0.3168 -1.1265
  579CHL     CL 3071   3.014   0.246   4.329 -0.4222 -0.2050 -0.0543
  579CHL      C 3072   2.884   0.143   4.401  0.0442  0.4031  0.2411
  579CHL    CL1 3073   2.960   0.034   4.520  0.0305  0.3247  0.0536
  579CHL    CL2 3074   2.759   0.255   4.469  0.5305 -0.6733 -0.5683
  579CHL      H 3075   2.838   0.077   4.327  0.5429 -0.0552  0.3304
  580CHL     CL 3076   3.236   3.874   0.789 -0.2196 -0.0892  0.2295
  580CHL      C 3077   3.181   3.944   0.643 -0.2458  0.6749  0.3350
  580CHL    CL1 3078   3.080   3.823   0.538  0.1293  0.0192  0.1565
  580CHL    CL2 3079   3.089   4.093   0.687 -0.0875  0.2488 -0.2588
  580CHL      H 3080   3.267   3.958   0.577 -0.0211 -2.7822 -0.2937
  581CHL     CL 3081   2.735   3.598   3.276 -0.3006  0.2786  0.4073
  581CHL      C 3082   2.780   3.718   3.146 -0.4660 -1.0389 -0.3424
  581CHL    CL1 3083   2.706   3.658   2.996  0.1766  0.3982 -0.0782
  581CHL    CL2 3084   2.711   3.883   3.164  0.1067 -0.0703 -0.5353
  581CHL      H 3085   2.887   3.711   3.129 -0.1847 -3.3716  1.7943
  582CHL     CL 3086   3.354   0.053   1.430  0.1306 -0.3075 -0.5528
  582CHL      C 3087   3.304   0.155   1.280 -0.4106  0.2332 -0.6677
  582CHL    CL1 3088   3.271   0.327   1.328 -0.1804  0.1291 -0.1998
  582CHL    CL2 3089   3.437   0.144   1.171 -0.4082 -0.2462  0.1965
  582CHL      H 3090   3.219   0.113   1.225 -0.8407  0.4046 -0.1531
  583CHL     CL 3091   2.593   0.097   3.362  0.1821 -0.3216 -0.0684
  583CHL      C 3092   2.718  -0.029   3.339  0.3025  0.0556  0.1647
  583CHL    CL1 3093   2.730  -0.126   3.482  0.1868  0.2241 -0.2875
  583CHL    CL2 3094   2.698  -0.140   3.201 -0.1875 -0.2027 -0.0266
  583CHL      H 3095   2.809   0.032   3.337  0.0428  1.0554  5.1310
  584CHL     CL 3096   3.757   1.793   2.209 -0.1268 -0.1716 -0.0822
  584CHL      C 3097   3.877   1.880   2.308  0.0075  0.0649 -0.7449
  584CHL    CL1 3098   3.799   1.996   2.427  0.1120  0.2615  0.1424
  584CHL    CL2 3099   3.957   1.752   2.404 -0.3473 -0.0514 -0.2684
  584CHL      H 3100   3.953   1.925   2.244  0.2943  0.3693 -0.1953
  585CHL     CL 3101   3.181   3.868   1.591  0.0606  0.2313  0.1511
  585CHL      C 3102   3.100   3.996   1.704 -0.3887 -0.5222 -0.4253
  585CHL    CL1 3103   3.073   4.157   1.620  0.2406 -0.0538 -0.2988
  585CHL    CL2 3104   2.941   3.940   1.763  0.2867  0.3531 -0.1374
  585CHL      H 3105   3.165   4.021   1.788  0.3398  0.5526 -1.2849
  586CHL     CL 3106   0.025   2.688   0.931 -0.3410 -0.2528  0.0112
  586CHL      C 3107   0.139   2.597   0.823 -0.2524 -0.3103 -0.2054
  586CHL    CL1 3108   0.111   2.427   0.848  0.2735 -0.2631  0.3222
  586CHL    CL2 3109   0.119   2.637   0.649  0.3718 -0.0435 -0.0144
  586CHL      H 3110   0.238   2.617   0.865 -0.8807  0.0720  1.1696
  587CHL     CL 3111   3.405   3.430   0.767 -0.5424  0.0995 -0.1287
  587CHL      C 3112   3.418   3.292   0.890  0.1534  0.7409  0.2609
  587CHL    CL1 3113   3.256   3.221   0.913  0.4103 -0.1500 -0.4891
  587CHL    CL2 3114   3.530   3.162   0.839  0.2603  0.5266 -0.0986
  587CHL      H 3115   3.448   3.325   0.990  2.3518 -1.4100  0.4158
  588CHL     CL 3116   0.228   3.083   2.193 -0.1781 -0.0957  0.0995
  588CHL      C 3117   0.241   3.078   2.371 -0.0527 -0.7070  0.0249
  588CHL    CL1 3118   0.410   3.037   2.421 -0.2755  0.4135 -0.0018
  588CHL    CL2 3119   0.218   3.244   2.424 -0.3079  0.1721 -0.3302
  588CHL      H 3120   0.170   3.003   2.408  1.6288 -2.1338  0.4793
  589CHL     CL 3121   0.526   0.903   0.624  0.4547 -0.2800 -0.3216
  589CHL      C 3122   0.692   0.824   0.613  0.6981  0.6160  0.1544
  589CHL    CL1 3123   0.701   0.662   0.685 -0.4650 -0.2802 -0.2294
  589CHL    CL2 3124   0.764   0.826   0.447  0.2417  0.1996 -0.1471
  589CHL      H 3125   0.759   0.888   0.671 -0.5567  2.4103 -0.2747
  590CHL     CL 3126   4.243   2.457   3.508  0.2279  0.0170 -0.4529
  590CHL      C 3127   4.346   2.493   3.366  0.1998  0.0589 -0.0511
  590CHL    CL1 3128   4.381   2.353   3.265  0.0308 -0.4526 -0.2571
  590CHL    CL2 3129   4.286   2.628   3.262  0.2958  0.0378 -0.5582
  590CHL      H 3130   4.440   2.531   3.407 -0.3779  1.2940  0.1557
  591CHL     CL 3131   0.723   0.000   0.005  0.1470  0.0585 -0.0306
  591CHL      C 3132   0.824   0.126   0.072 -0.4988 -0.1873 -0.4218
  591CHL    CL1 3133   0.862   0.087   0.252  0.2230  0.5146 -0.0777
  591CHL    CL2 3134   0.973   0.140  -0.021  0.0495 -0.0652  0.1543
  591CHL      H 3135   0.768   0.220   0.070  0.4815  0.6174  3.0432
  592CHL     CL 3136   2.256   3.412   2.701 -0.1467 -0.1148 -0.0605
  592CHL      C 3137   2.172   3.326   2.573  0.2193 -0.0670 -0.2410
  592CHL    CL1 3138   2.044   3.236   2.658  0.1921 -0.1801  0.2989
  592CHL    CL2 3139   2.107   3.430   2.440 -0.3252  0.2196 -0.2645
  592CHL      H 3140   2.243   3.252   2.532  0.4467  0.5077 -0.9054
  593CHL     CL 3141   3.187   1.717   0.813 -0.0242 -0.1876  0.0371
  593CHL      C 3142   3.176   1.774   0.650 -0.4036  0.3079 -0.2747
  593CHL    CL1 3143   3.260   1.651   0.545  0.0326  0.5208 -0.3764
  593CHL    CL2 3144   2.994   1.796   0.614 -0.1027 -0.3619 -0.0273
  593CHL      H 3145   3.228   1.870   0.648 -0.3702  0.3217  0.8828
  594CHL     CL 3146   4.309   4.148   0.723 -0.1848 -0.3584  0.2365
  594CHL      C 3147   4.295   4.262   0.584 -0.1025 -0.1476  0.7548
  594CHL    CL1 3148   4.343   4.183   0.424 -0.0739 -0.0787 -0.5140
  594CHL    CL2 3149   4.131   4.337   0.574 -0.1322 -0.3047  0.3599
  594CHL      H 3150   4.359   4.350   0.597 -0.7180  0.6021 -0.9321
  595CHL     CL 3151   1.944   2.373   0.314  0.0322 -0.0966  0.0978
  595CHL      C 3152   2.044   2.379   0.469  0.8770 -0.6804  0.8606
  595CHL    CL1 3153   2.003   2.223   0.555 -0.0576 -0.1931  0.0092
  595CHL    CL2 3154   2.221   2.380   0.439 -0.0334  0.0521  0.0807
  595CHL      H 3155   2.014   2.472   0.520 -1.2086 -1.3063  0.8677
  596CHL     CL 3156   3.369   2.219   0.344  0.4904 -0.0973 -0.1147
  596CHL      C 3157   3.323   2.072   0.246 -0.2697 -0.3586 -0.0246
  596CHL    CL1 3158   3.467   1.988   0.167  0.3435 -0.0530  0.2766
  596CHL    CL2 3159   3.228   1.957   0.348 -0.3354  0.1130  0.0045
  596CHL      H 3160   3.256   2.106   0.166 -0.8447 -1.0454  0.1477
  597CHL     CL 3161   2.540   0.991   4.262 -0.2399 -0.5614  0.2238
  597CHL      C 3162   2.374   1.024   4.336 -0.0055  0.0551 -0.0842
  597CHL    CL1 3163   2.276   0.878   4.303  0.0047 -0.1581 -0.3303
  597CHL    CL2 3164   2.381   1.046   4.512  0.0534 -0.0861  0.0324
  597CHL      H 3165   2.319   1.107   4.291 -1.0164 -0.0522  0.9067
  598CHL     CL 3166   3.256   2.270   2.907 -0.0094  0.6442  0.2935
  598CHL      C 3167   3.212   2.219   3.073  0.1026  0.0798 -0.6221
  598CHL    CL1 3168   3.323   2.268   3.195 -0.0636 -0.2460 -0.2599
  598CHL    CL2 3169   3.061   2.288   3.122  0.3284 -0.1003 -0.3436
  598CHL      H 3170   3.198   2.111   3.077  1.0554 -0.0098  1.8238
  599CHL     CL 3171   0.075   0.419   1.892 -0.0615  0.0207 -0.1772
  599CHL      C 3172  -0.036   0.314   1.804  0.3258  0.1302  0.0048
  599CHL    CL1 3173   0.024   0.309   1.626  0.4327  0.0021  0.1953
  599CHL    CL2 3174  -0.045   0.146   1.868 -0.1423  0.0330  0.1866
  599CHL      H 3175  -0.134   0.360   1.821  0.5703  0.0464  1.9640
  600CHL     CL 3176   1.527   0.991   1.708  0.5743 -0.0072  0.4745
  600CHL      C 3177   1.487   1.028   1.891  0.7042  0.9153 -0.1882
  600CHL    CL1 3178   1.574   1.176   1.946 -0.0283 -0.1990  0.1136
  600CHL    CL2 3179   1.314   1.057   1.899  0.1023 -0.1180 -0.2837
  600CHL      H 3180   1.509   0.948   1.962  1.1726  2.4200  1.4677
  601CHL     CL 3181   3.671   2.024   1.938  0.5204  0.2112 -0.3259
  601CHL      C 3182   3.765   2.169   1.959  0.4391 -0.8366  0.4018
  601CHL    CL1 3183   3.924   2.130   2.045 -0.0172 -0.3087  0.0629
  601CHL    CL2 3184   3.796   2.236   1.797  0.4046 -0.1013 -0.3168
  601CHL      H 3185   3.699   2.234   2.017 -0.3205 -1.4484  0.2253
  602CHL     CL 3186   0.522   4.086   0.075  0.3030  0.7338  0.5086
  602CHL      C 3187   0.342   4.089   0.090 -1.0125 -0.6907 -0.3467
  602CHL    CL1 3188   0.271   3.932   0.074  0.2170 -0.4009 -0.0978
  602CHL    CL2 3189   0.310   4.153   0.244 -0.2038 -0.0266 -0.0407
  602CHL      H 3190   0.306   4.166   0.021 -0.5038 -0.2624 -0.1366
  603CHL     CL 3191   0.310   3.790   0.526 -0.0739  0.5138 -0.1405
  603CHL      C 3192   0.303   3.727   0.357  0.5455 -0.1840  0.2014
  603CHL    CL1 3193   0.472   3.756   0.293 -0.2708 -0.0782  0.0532
  603CHL    CL2 3194   0.277   3.548   0.361  0.3739  0.2219  0.1498
  603CHL      H 3195   0.236   3.783   0.291  0.6169  2.3501  2.1148
  604CHL     CL 3196   3.210   1.353   1.495 -0.1296 -0.2476  0.1334
  604CHL      C 3197   3.300   1.296   1.358  0.2685 -0.4973  0.5600
  604CHL    CL1 3198   3.223   1.353   1.209 -0.3140 -0.1594  0.1653
  604CHL    CL2 3199   3.469   1.363   1.373  0.3430  0.0130 -0.1739
  604CHL      H 3200   3.296   1.187   1.363  1.0942 -0.6426 -1.2026
  605CHL     CL 3201   3.265   4.267   2.164  0.3816  0.0227  0.5399
  605CHL      C 3202   3.144   4.364   2.078  0.2844 -0.2691 -0.2256
  605CHL    CL1 3203   3.127   4.531   2.155  0.2219  0.0167  0.2284
  605CHL    CL2 3204   3.185   4.388   1.903  0.2630 -0.2216  0.0669
  605CHL      H 3205   3.049   4.311   2.090  1.0406 -1.1948  2.3119
  606CHL     CL 3206   2.827   2.631   0.788 -0.1737 -0.1204 -0.0598
  606CHL      C 3207   2.728   2.774   0.817 -0.5234  0.1621 -0.3801
  606CHL    CL1 3208   2.659   2.842   0.653  0.0568 -0.0990 -0.2780
  606CHL    CL2 3209   2.585   2.728   0.924 -0.2608  0.4113 -0.0103
  606CHL      H 3210   2.801   2.839   0.867  1.4402 -1.4605 -0.9843
  607CHL     CL 3211   1.882   2.352   3.466  0.3906 -0.0015 -0.2966
  607CHL      C 3212   1.742   2.247   3.517  0.0683  0.5821 -0.3042
  607CHL    CL1 3213   1.719   2.286   3.691  0.3262  0.2415 -0.1256
  607CHL    CL2 3214   1.591   2.282   3.421 -0.2394 -0.3864 -0.2584
  607CHL      H 3215   1.762   2.140   3.508  0.2161  0.1797  3.4586
  608CHL     CL 3216   4.051   2.635   0.895 -0.1451  0.0326  0.2813
  608CHL      C 3217   4.074   2.698   1.065 -0.6322  0.5556 -0.6576
  608CHL    CL1 3218   3.909   2.716   1.141 -0.0247 -0.2745  0.4025
  608CHL    CL2 3219   4.151   2.580   1.163 -0.1994  0.2650 -0.2705
  608CHL      H 3220   4.118   2.798   1.063  2.2961 -0.6304  0.3500
  609CHL     CL 3221   3.694   0.003   0.721  0.0560  0.3074  0.0317
  609CHL      C 3222   3.731   0.106   0.871 -0.3479 -0.0111  0.9211
  609CHL    CL1 3223   3.773  -0.001   1.010  0.2192  0.3572  0.0741
  609CHL    CL2 3224   3.863   0.227   0.837  0.7727 -0.5076  0.1205
  609CHL      H 3225   3.635   0.148   0.902 -0.4267 -0.8190  1.8154
  610CL      CL 3226   1.203   4.147   2.128  0.3183  0.3455  0.0246
   4.39385   4.39385   4.39385
