nspe_7_2 in water
 2625
    1HCP      H    1   2.175   2.035   1.272  0.3032  0.1757 -0.1583
    2R02      N    2   2.202   2.086   1.355 -0.4208  0.2212  0.0620
    2R02     C1    3   2.300   2.019   1.438 -0.5282 -0.3076  0.5039
    2R02     H1    4   2.284   2.058   1.539 -0.8354  0.0178  0.3314
    2R02     C2    5   2.249   1.875   1.452  0.0513 -0.0507  0.2483
    2R02     H2    6   2.150   1.866   1.499 -0.5164 -0.0228 -0.9163
    2R02     H3    7   2.322   1.825   1.519  1.7484  0.3409 -1.2383
    2R02     H4    8   2.244   1.830   1.352 -1.1181  0.6505 -0.0203
    2R02     C3    9   2.453   2.035   1.401  0.7673 -0.1557  0.7701
    2R02     C4   10   2.493   2.025   1.270 -0.4190 -0.4142 -0.3988
    2R02     H5   11   2.420   2.015   1.190  0.8317 -1.3050 -1.4770
    2R02     C5   12   2.634   2.030   1.231  0.0722 -0.0403 -0.1201
    2R02     H6   13   2.664   2.008   1.129  2.7751  2.8500 -0.0785
    2R02     C6   14   2.730   2.059   1.332 -0.4529 -0.2867 -0.0513
    2R02     H7   15   2.834   2.067   1.304 -0.6021  1.1911 -0.2524
    2R02     C7   16   2.684   2.076   1.464  0.1234 -0.0302  0.3118
    2R02     H8   17   2.760   2.098   1.538  1.4035  0.1301 -1.0100
    2R02     C8   18   2.547   2.072   1.497  0.9658 -0.2732 -0.0670
    2R02     H9   19   2.507   2.082   1.597  0.5900  0.6981 -0.3086
    2R02     CA   20   2.199   2.235   1.357 -0.0189 -0.4091  0.5382
    2R02    H10   21   2.133   2.267   1.275  1.8653  0.1585 -0.8260
    2R02    H11   22   2.296   2.282   1.339 -1.2938  1.4568 -2.2974
    2R02      C   23   2.133   2.287   1.493 -0.3749  0.0627 -0.0836
    2R02      O   24   2.199   2.348   1.569 -0.9069  0.0264  0.1066
    3R02      N   25   2.005   2.244   1.537 -0.3650 -0.2604 -0.2218
    3R02     C1   26   1.908   2.186   1.439 -0.0473  0.3268 -0.1579
    3R02     H1   27   1.958   2.136   1.355 -1.1418 -0.0057 -0.6267
    3R02     C2   28   1.826   2.070   1.509 -0.2411  0.3698  0.1829
    3R02     H2   29   1.764   2.103   1.594 -0.6156  0.7814 -0.2454
    3R02     H3   30   1.890   1.987   1.542 -1.3468 -0.6518 -0.1472
    3R02     H4   31   1.752   2.024   1.442 -0.7495  3.0677 -1.2622
    3R02     C3   32   1.828   2.288   1.359 -0.8934 -0.0386  0.4137
    3R02     C4   33   1.763   2.403   1.424  0.0203  0.5380  0.2223
    3R02     H5   34   1.764   2.413   1.532 -2.4995  0.8915  0.2613
    3R02     C5   35   1.672   2.480   1.356  0.0455 -0.0094 -0.5590
    3R02     H6   36   1.625   2.551   1.423  2.3965  1.6421 -0.5302
    3R02     C6   37   1.650   2.464   1.221 -0.3130  0.0518  0.2439
    3R02     H7   38   1.583   2.529   1.164 -0.0096  0.0642 -0.1020
    3R02     C7   39   1.739   2.372   1.152  0.5206  0.5836 -0.1802
    3R02     H8   40   1.740   2.368   1.044  1.1477  1.2757 -0.2043
    3R02     C8   41   1.823   2.283   1.221 -0.2169 -0.1177  0.1366
    3R02     H9   42   1.888   2.217   1.164 -0.1020  0.9894 -1.0793
    3R02     CA   43   1.965   2.267   1.679 -0.1675 -0.0723 -0.2472
    3R02    H10   44   1.856   2.256   1.691 -0.3961  1.6440 -0.4484
    3R02    H11   45   1.999   2.364   1.717 -0.2845 -0.9968  2.4795
    3R02      C   46   2.034   2.168   1.774  0.0043  0.4538  0.3049
    3R02      O   47   2.131   2.106   1.737 -0.0209  0.2963 -0.4402
    4R02      N   48   1.978   2.161   1.903 -0.0630 -0.0860  0.2408
    4R02     C1   49   2.019   2.058   1.998  0.6901 -0.6837  0.3939
    4R02     H1   50   2.098   1.999   1.950  2.2693  1.6005 -0.0346
    4R02     C2   51   2.087   2.132   2.118 -0.3795 -0.0366 -0.1894
    4R02     H2   52   2.018   2.202   2.166  0.1432  0.5755 -0.3089
    4R02     H3   53   2.171   2.192   2.081  0.9378 -2.8237 -2.0204
    4R02     H4   54   2.121   2.061   2.195  1.9983  0.1827 -0.9514
    4R02     C3   55   1.905   1.957   2.029  0.1310 -0.2095 -0.0418
    4R02     C4   56   1.896   1.894   2.158  0.7852  0.3628  0.5290
    4R02     H5   57   1.956   1.920   2.245  1.3410 -0.3317  0.3665
    4R02     C5   58   1.800   1.795   2.176  0.1029 -1.2043 -0.0681
    4R02     H6   59   1.783   1.745   2.271  1.4685 -0.2319  0.7319
    4R02     C6   60   1.722   1.752   2.071  0.5401 -0.7537 -0.0177
    4R02     H7   61   1.651   1.672   2.090 -1.2440  0.7461  0.0274
    4R02     C7   62   1.740   1.801   1.942 -0.1651  0.1245 -0.9214
    4R02     H8   63   1.678   1.765   1.861 -0.5115  0.1210 -0.6582
    4R02     C8   64   1.836   1.904   1.919  0.2175  0.1782 -0.2912
    4R02     H9   65   1.853   1.943   1.819 -1.2909 -0.2651 -0.7457
    4R02     CA   66   1.849   2.230   1.942 -0.0241  0.8999  0.0466
    4R02    H10   67   1.813   2.192   2.038 -1.4567  0.2952 -0.6918
    4R02    H11   68   1.773   2.207   1.867  0.5844 -2.4755  0.3195
    4R02      C   69   1.868   2.384   1.965 -0.0026 -0.4807 -0.3903
    4R02      O   70   1.979   2.430   2.010  0.2015  0.4528  0.8539
    5R02      N   71   1.759   2.465   1.931 -0.3626  0.5579 -0.2608
    5R02     C1   72   1.772   2.607   1.891 -0.1125  0.0081 -0.4848
    5R02     H1   73   1.872   2.636   1.923 -0.5499  2.0911 -0.8846
    5R02     C2   74   1.780   2.621   1.738 -0.0816 -0.3377  0.3344
    5R02     H2   75   1.864   2.571   1.688  0.4880  0.4764  0.4724
    5R02     H3   76   1.787   2.726   1.708  0.6759 -0.5322 -0.2141
    5R02     H4   77   1.689   2.587   1.686  1.0409 -0.5232 -1.6413
    5R02     C3   78   1.679   2.702   1.961  0.4780 -0.4842 -1.0997
    5R02     C4   79   1.706   2.735   2.097 -0.1320 -0.1025  0.2997
    5R02     H5   80   1.796   2.693   2.142  0.2899 -0.0751 -0.4926
    5R02     C5   81   1.608   2.800   2.169  0.4442 -0.4615 -0.1216
    5R02     H6   82   1.626   2.819   2.275  0.5313  1.4440 -0.4355
    5R02     C6   83   1.486   2.834   2.116  0.6766  1.2178  0.4168
    5R02     H7   84   1.418   2.884   2.185 -1.0575  0.0651 -0.4059
    5R02     C7   85   1.464   2.811   1.982  1.1463 -0.2711  1.1378
    5R02     H8   86   1.366   2.829   1.940  1.5519 -0.1806  0.2016
    5R02     C8   87   1.561   2.745   1.904 -0.0632 -0.4121  1.0312
    5R02     H9   88   1.543   2.714   1.801  2.3533 -0.4426  0.5526
    5R02     CA   89   1.628   2.416   1.964 -0.2987  0.4868  0.3008
    5R02    H10   90   1.579   2.493   2.026  0.2806 -1.0012  2.7390
    5R02    H11   91   1.638   2.330   2.031  0.4765 -0.0307 -0.4563
    5R02      C   92   1.551   2.370   1.837  0.7804  0.3052 -0.4011
    5R02      O   93   1.617   2.351   1.737  0.1472 -0.6281 -0.6117
    6R02      N   94   1.413   2.367   1.842  0.1643 -0.3242  0.1794
    6R02     C1   95   1.341   2.338   1.711  0.7041  0.2135 -0.4756
    6R02     H1   96   1.404   2.273   1.649 -0.7287  0.1634 -1.9452
    6R02     C2   97   1.220   2.237   1.738  0.4149  0.2070  0.0956
    6R02     H2   98   1.138   2.285   1.793  1.1306  1.6318 -0.0114
    6R02     H3   99   1.262   2.144   1.779  0.5197  0.6032  0.9127
    6R02     H4  100   1.165   2.209   1.648 -0.0211  0.8692  0.1450
    6R02     C3  101   1.301   2.467   1.633 -0.0158  0.6698  0.3814
    6R02     C4  102   1.329   2.478   1.494 -0.2454 -0.5027  0.3170
    6R02     H5  103   1.365   2.399   1.429  0.2680  0.1775 -0.2400
    6R02     C5  104   1.302   2.597   1.418 -0.0692  0.1076 -0.0063
    6R02     H6  105   1.313   2.597   1.310  1.5427 -0.7678  0.1429
    6R02     C6  106   1.252   2.713   1.484 -0.0060  0.7506  0.7065
    6R02     H7  107   1.226   2.801   1.426  0.4729 -0.1123 -0.8962
    6R02     C7  108   1.218   2.701   1.620  0.1255  0.7269  0.1068
    6R02     H8  109   1.176   2.786   1.674  0.2142  1.0645 -0.3425
    6R02     C8  110   1.248   2.577   1.694 -0.1128 -0.6419 -0.1841
    6R02     H9  111   1.222   2.572   1.799 -2.0649 -1.4026 -0.6664
    6R02     CA  112   1.333   2.389   1.967  0.5117 -0.5022 -0.1634
    6R02    H10  113   1.231   2.408   1.932 -0.1007 -2.4626  0.4554
    6R02    H11  114   1.364   2.482   2.016 -1.4737  0.9108 -1.4262
    6R02      C  115   1.340   2.284   2.074  0.3301 -0.1469 -0.1369
    6R02      O  116   1.416   2.194   2.050  0.2055  0.1335 -0.0494
    7R02      N  117   1.253   2.280   2.183 -0.0997  0.2800 -0.3687
    7R02     C1  118   1.158   2.389   2.205  0.6182  0.3185 -0.6352
    7R02     H1  119   1.159   2.460   2.122  2.6460 -2.7730 -3.5072
    7R02     C2  120   1.008   2.339   2.183  0.1180 -0.4484  0.3321
    7R02     H2  121   0.966   2.265   2.253 -1.5646 -1.9505 -2.1092
    7R02     H3  122   0.992   2.296   2.083  3.1706 -0.1828 -0.3646
    7R02     H4  123   0.933   2.419   2.174  0.1677 -0.4377 -0.0000
    7R02     C3  124   1.186   2.481   2.332 -0.5655  0.4358 -0.1658
    7R02     C4  125   1.143   2.463   2.465  0.7522 -0.5492  0.7183
    7R02     H5  126   1.089   2.372   2.491 -0.1151 -0.6459 -1.2625
    7R02     C5  127   1.184   2.553   2.566  0.0993  0.3311 -0.0405
    7R02     H6  128   1.144   2.533   2.665 -0.9002  1.0445 -0.2736
    7R02     C6  129   1.281   2.653   2.539  0.1004 -0.0318  0.1030
    7R02     H7  130   1.330   2.712   2.616  1.2218  1.8984 -1.9439
    7R02     C7  131   1.312   2.687   2.409  0.0243  0.1591  0.0325
    7R02     H8  132   1.379   2.768   2.383  0.0184  0.6396  1.4184
    7R02     C8  133   1.269   2.595   2.305 -0.2674 -0.9654  0.1728
    7R02     H9  134   1.302   2.616   2.203 -2.9697  0.1484 -0.5445
    7R02     CA  135   1.253   2.165   2.274 -0.3376  0.4966 -0.2710
    7R02    H10  136   1.182   2.185   2.356  0.8080  2.8233  0.2403
    7R02    H11  137   1.349   2.150   2.325 -0.8480 -1.2236  0.2451
    7R02      C  138   1.211   2.032   2.198  0.7036 -0.1748 -1.0565
    7R02      O  139   1.134   2.033   2.107 -0.0355  0.1609  0.3261
    8R02      N  140   1.260   1.913   2.244 -0.1312 -0.0664  0.3527
    8R02     C1  141   1.221   1.790   2.172  0.1376  0.0609 -0.0995
    8R02     H1  142   1.233   1.817   2.067  0.6120 -3.7638 -1.1742
    8R02     C2  143   1.325   1.677   2.185  0.3141  0.2002 -0.6319
    8R02     H2  144   1.425   1.696   2.144 -0.4105  0.1708 -2.4679
    8R02     H3  145   1.292   1.592   2.124 -0.7718  1.1765 -1.4511
    8R02     H4  146   1.341   1.643   2.289 -0.6007  3.0632  0.5326
    8R02     C3  147   1.088   1.739   2.210  0.4346 -0.0844 -0.8914
    8R02     C4  148   1.065   1.721   2.351 -0.2238 -0.5282 -0.0960
    8R02     H5  149   1.148   1.743   2.418 -0.6380 -0.9405  0.5731
    8R02     C5  150   0.943   1.661   2.399 -0.9158  0.2506  0.2258
    8R02     H6  151   0.931   1.641   2.505  1.8825  2.0801  0.9784
    8R02     C6  152   0.841   1.632   2.304 -0.2846  0.0389 -0.4366
    8R02     H7  153   0.740   1.616   2.340 -0.4830  0.9581 -0.5594
    8R02     C7  154   0.865   1.651   2.168  0.3310 -0.4010 -0.0348
    8R02     H8  155   0.793   1.627   2.091  0.2647 -2.4351  0.5973
    8R02     C8  156   0.985   1.708   2.124  0.3293 -0.2879 -0.0086
    8R02     H9  157   0.995   1.723   2.017  0.7630  0.9192  0.1778
    8R02     CA  158   1.357   1.901   2.359  0.9715 -0.3188  0.0100
    8R02    H10  159   1.350   1.807   2.416  1.2175 -0.6081 -0.4312
    8R02    H11  160   1.343   1.980   2.433 -0.5712  0.2263 -0.8044
    8R02      C  161   1.497   1.919   2.310 -0.5267  0.0001 -0.2360
    8R02      O  162   1.592   1.906   2.387 -0.4065  0.0293  0.1565
    9NH2      N  163   1.521   1.969   2.184 -0.1746  0.5209 -0.1516
    9NH2     H1  164   1.440   1.995   2.129 -1.0571 -1.3976  0.1691
    9NH2     H2  165   1.613   1.955   2.144  0.7588  0.3098  1.9652
   10UNL     CL  166   3.670   0.782   2.394  0.4235 -0.5606 -0.1397
   10UNL      C  167   3.709   0.703   2.555 -0.0200 -0.5090  0.3476
   10UNL    CL1  168   3.783   0.541   2.504 -0.2220  0.0377  0.2592
   10UNL    CL2  169   3.825   0.808   2.654 -0.3131 -0.3131 -0.3269
   10UNL      H  170   3.618   0.695   2.615  0.8158  0.2019  1.7691
   11UNL     CL  171   2.739   2.529   3.777  0.3817 -0.1551 -0.2108
   11UNL      C  172   2.765   2.399   3.895 -0.1900  0.3376  0.2331
   11UNL    CL1  173   2.793   2.464   4.061  0.2561  0.0605 -0.0601
   11UNL    CL2  174   2.623   2.297   3.889  0.1515  0.0806  0.1468
   11UNL      H  175   2.858   2.342   3.877 -1.5092 -1.7344 -0.4040
   12UNL     CL  176   4.070   1.687   1.327 -0.3265 -0.0213  0.4046
   12UNL      C  177   3.923   1.634   1.246  0.1264 -0.5820  0.5675
   12UNL    CL1  178   3.823   1.781   1.196 -0.2806 -0.3269 -0.1301
   12UNL    CL2  179   3.987   1.544   1.102 -0.0774 -0.2258  0.0825
   12UNL      H  180   3.866   1.563   1.307 -0.1692 -0.6758  0.1797
   13UNL     CL  181   0.020   3.619   3.320 -0.4036 -0.2082 -0.0133
   13UNL      C  182   0.139   3.492   3.278  0.1126 -0.1303 -0.0299
   13UNL    CL1  183   0.060   3.404   3.144  0.0705 -0.0143  0.2516
   13UNL    CL2  184   0.287   3.570   3.222  0.0294  0.1223  0.1813
   13UNL      H  185   0.155   3.427   3.365 -0.7225  2.1873  1.9711
   14UNL     CL  186   1.139   1.022   0.277 -0.1984 -0.0791 -0.5191
   14UNL      C  187   0.985   1.049   0.378 -0.1291  1.0514 -0.7672
   14UNL    CL1  188   0.863   1.097   0.262  0.1302 -0.3978 -0.1611
   14UNL    CL2  189   0.940   0.891   0.448  0.1014  0.0514 -0.0439
   14UNL      H  190   0.995   1.119   0.463 -2.0082  0.8704 -0.3630
   15UNL     CL  191   0.813   3.299   0.533  0.3998  0.1617 -0.2549
   15UNL      C  192   0.940   3.220   0.426  0.4913 -0.4333 -0.5833
   15UNL    CL1  193   0.866   3.063   0.396  0.2296 -0.4143  0.5045
   15UNL    CL2  194   0.955   3.315   0.283 -0.2593  0.3138  0.3132
   15UNL      H  195   1.033   3.205   0.482 -0.4621 -0.1878  1.1335
   16UNL     CL  196   1.525   0.834   0.195 -0.4413  0.1403 -0.6315
   16UNL      C  197   1.538   0.859   0.016  0.2826  0.0050  0.5769
   16UNL    CL1  198   1.470   0.722  -0.081 -0.4283 -0.1147  0.0095
   16UNL    CL2  199   1.453   1.008  -0.033 -0.3987  0.0936 -0.3236
   16UNL      H  200   1.644   0.856  -0.012  0.1293 -1.1701  0.0688
   17UNL     CL  201   0.821   0.618   3.102  0.1552 -0.1004  0.3338
   17UNL      C  202   0.747   0.781   3.144 -0.2586 -0.4539 -0.5334
   17UNL    CL1  203   0.805   0.902   3.025  0.3080  0.0325  0.1460
   17UNL    CL2  204   0.569   0.778   3.133  0.1976 -0.2837  0.0503
   17UNL      H  205   0.777   0.810   3.245 -2.0311 -1.6761  0.3780
   18UNL     CL  206   0.530   2.506   1.401  0.0157  0.0424  0.3985
   18UNL      C  207   0.366   2.568   1.381  0.8674 -0.1541  0.1486
   18UNL    CL1  208   0.250   2.480   1.472  0.2267  0.1340  0.1340
   18UNL    CL2  209   0.355   2.731   1.462  0.2885  0.4188  0.3786
   18UNL      H  210   0.338   2.574   1.276  2.6927  0.3398 -0.3430
   19UNL     CL  211   1.777   0.541   2.998 -0.1564  0.1856 -0.0729
   19UNL      C  212   1.843   0.654   2.879 -0.6006 -0.2604 -0.1560
   19UNL    CL1  213   1.697   0.733   2.791  0.1071 -0.0207  0.0759
   19UNL    CL2  214   1.932   0.784   2.961 -0.1083  0.1759  0.0486
   19UNL      H  215   1.898   0.602   2.800  0.8130  1.2574 -0.2164
   20UNL     CL  216   3.597   2.815   2.397 -0.1355  0.4303 -0.1111
   20UNL      C  217   3.465   2.940   2.411 -0.3992 -0.1723  0.2031
   20UNL    CL1  218   3.320   2.878   2.320  0.1758  0.1159  0.1246
   20UNL    CL2  219   3.412   2.963   2.577  0.2966 -0.2765  0.0927
   20UNL      H  220   3.496   3.038   2.374 -0.0667 -0.5165 -0.4562
   21UNL     CL  221   0.271   1.514   0.966 -0.1253 -0.0886  0.2737
   21UNL      C  222   0.373   1.382   0.877 -0.4183  0.0995 -0.0760
   21UNL    CL1  223   0.403   1.456   0.717 -0.3341  0.1395 -0.0453
   21UNL    CL2  224   0.525   1.362   0.970  0.0350  0.1671  0.2856
   21UNL      H  225   0.310   1.293   0.865 -1.7095  0.9795 -0.0707
   22UNL     CL  226   0.884   2.719   3.957 -0.1394 -0.1900  0.3051
   22UNL      C  227   0.720   2.728   4.023 -0.2023  0.5169  0.2781
   22UNL    CL1  228   0.608   2.838   3.935 -0.1910  0.2908  0.3625
   22UNL    CL2  229   0.643   2.555   4.043 -0.1188 -0.0524 -0.2387
   22UNL      H  230   0.731   2.765   4.125  0.9787  3.4827 -0.8229
   23UNL     CL  231   3.972   2.161   1.115 -0.2563 -0.0893  0.0459
   23UNL      C  232   3.869   2.104   0.983 -0.6615 -0.0672 -0.2626
   23UNL    CL1  233   3.704   2.165   1.010  0.0084 -0.0043 -0.2229
   23UNL    CL2  234   3.926   2.167   0.828 -0.2110  0.0128 -0.0897
   23UNL      H  235   3.868   1.994   0.992  0.1284  0.0008  0.7614
   24UNL     CL  236   1.304   1.941   3.510  0.2346 -0.4345 -0.1656
   24UNL      C  237   1.149   1.956   3.408 -0.5243 -0.5263 -1.0911
   24UNL    CL1  238   1.193   2.012   3.247  0.5256 -0.5795 -0.2557
   24UNL    CL2  239   1.064   1.789   3.400  0.2092  0.2332 -0.0454
   24UNL      H  240   1.085   2.031   3.455  0.6660 -0.4739  0.5600
   25UNL     CL  241   3.151   1.422   3.361 -0.0127  0.0397  0.1502
   25UNL      C  242   3.129   1.472   3.182  0.5746  0.5299 -0.2992
   25UNL    CL1  243   3.246   1.599   3.141 -0.0571 -0.0104  0.2268
   25UNL    CL2  244   3.166   1.339   3.066  0.0304  0.2407 -0.2168
   25UNL      H  245   3.029   1.514   3.165 -0.3775 -1.1803  0.7001
   26UNL     CL  246   2.321   1.741   3.082 -0.0556 -0.2897  0.5325
   26UNL      C  247   2.146   1.748   3.094 -0.0069  0.0990 -0.4314
   26UNL    CL1  248   2.111   1.916   3.141 -0.1039  0.1045 -0.2647
   26UNL    CL2  249   2.065   1.717   2.937  0.2991 -0.0269  0.3513
   26UNL      H  250   2.110   1.674   3.167 -0.4890  1.2989  0.5826
   27UNL     CL  251   1.987   1.629   2.404  0.0902 -0.2256  0.3365
   27UNL      C  252   2.093   1.636   2.260 -0.1111  0.6143 -0.9047
   27UNL    CL1  253   2.270   1.615   2.322  0.0581  0.2737 -0.2928
   27UNL    CL2  254   2.060   1.499   2.155 -0.0529 -0.0377 -0.1409
   27UNL      H  255   2.085   1.733   2.210  0.6433  0.5016 -1.2524
   28UNL     CL  256   3.497   0.342   0.641  0.0009 -0.3881  0.1012
   28UNL      C  257   3.380   0.214   0.701 -0.3786 -0.3772 -0.9046
   28UNL    CL1  258   3.429   0.163   0.865  0.2617  0.2057 -0.3923
   28UNL    CL2  259   3.220   0.287   0.706  0.2813  0.3219 -0.1485
   28UNL      H  260   3.381   0.129   0.632  2.2889 -0.6641 -0.5954
   29UNL     CL  261   1.072   3.815   3.738  0.0668  0.2091 -0.0071
   29UNL      C  262   1.038   3.727   3.590  0.1299  0.1529  0.2281
   29UNL    CL1  263   0.860   3.747   3.536 -0.1150  0.1837  0.3621
   29UNL    CL2  264   1.143   3.791   3.464  0.2046 -0.1947 -0.0486
   29UNL      H  265   1.049   3.620   3.611 -0.3503  0.0575  0.0082
   30UNL     CL  266   2.543   0.242   0.167  0.0377 -0.0475  0.3270
   30UNL      C  267   2.369   0.216   0.105  0.4190 -0.3830  0.0366
   30UNL    CL1  268   2.356   0.254  -0.074 -0.0628  0.0745 -0.4028
   30UNL    CL2  269   2.295   0.064   0.148  0.0134  0.0666 -0.1802
   30UNL      H  270   2.309   0.295   0.151  3.8784  0.6089  3.2889
   31UNL     CL  271   3.232   2.668   2.588 -0.0282 -0.1466  0.0968
   31UNL      C  272   3.123   2.685   2.725 -0.1115  0.1754  0.8812
   31UNL    CL1  273   3.180   2.805   2.848 -0.0396  0.1520 -0.2388
   31UNL    CL2  274   2.958   2.729   2.677  0.1970 -0.1056 -0.2927
   31UNL      H  275   3.109   2.584   2.765 -2.7976 -0.3449 -1.0956
   32UNL     CL  276   0.036   4.114   2.529 -0.0842  0.4977 -0.1186
   32UNL      C  277   0.137   4.039   2.406 -0.6832 -0.1649 -0.0787
   32UNL    CL1  278   0.042   4.012   2.253  0.1079 -0.3040 -0.0089
   32UNL    CL2  279   0.283   4.144   2.369 -0.1721 -0.1809  0.4178
   32UNL      H  280   0.169   3.938   2.434 -2.2216 -0.3050  1.3862
   33UNL     CL  281   4.082   2.245   0.443  0.1841 -0.2718 -0.2198
   33UNL      C  282   3.962   2.393   0.435 -0.0266  0.5047 -0.4565
   33UNL    CL1  283   3.800   2.328   0.471  0.5429 -0.1374 -0.1591
   33UNL    CL2  284   4.005   2.523   0.546 -0.4818  0.1849 -0.6088
   33UNL      H  285   3.959   2.424   0.330 -1.7979 -0.2284 -0.6602
   34UNL     CL  286   2.523   0.417   2.112 -0.4932 -0.0597  0.2495
   34UNL      C  287   2.453   0.313   1.982  0.0708 -0.2387 -0.0997
   34UNL    CL1  288   2.561   0.299   1.841 -0.1620  0.2936  0.3385
   34UNL    CL2  289   2.409   0.151   2.046  0.2398  0.4606 -0.2587
   34UNL      H  290   2.369   0.369   1.938  1.4431  1.9185 -0.1570
   35UNL     CL  291   0.321   3.434   2.654 -0.0128  0.2294  0.2601
   35UNL      C  292   0.491   3.400   2.637 -0.4469 -0.1921 -0.4838
   35UNL    CL1  293   0.543   3.482   2.483  0.3138 -0.2876  0.1123
   35UNL    CL2  294   0.583   3.442   2.787  0.0396 -0.1443  0.0064
   35UNL      H  295   0.506   3.293   2.620  4.8567  0.0450  0.9658
   36UNL     CL  296   3.504   2.616   3.060  0.2052  0.3606 -0.0332
   36UNL      C  297   3.522   2.555   2.897 -0.1593  0.5421  0.2160
   36UNL    CL1  298   3.381   2.451   2.865  0.0565  0.1634  0.0851
   36UNL    CL2  299   3.540   2.690   2.779  0.1684 -0.1557  0.1058
   36UNL      H  300   3.611   2.492   2.887  0.6511  1.6683  0.1249
   37UNL     CL  301   3.773   0.360   1.076 -0.4642  0.0179 -0.0490
   37UNL      C  302   3.818   0.478   0.945  0.3952  0.3425 -0.6012
   37UNL    CL1  303   3.872   0.393   0.792  0.2006  0.1848  0.4839
   37UNL    CL2  304   3.673   0.584   0.918 -0.2805 -0.0218 -0.0527
   37UNL      H  305   3.903   0.539   0.977 -0.2883  1.0903 -0.1453
   38UNL     CL  306   3.828   0.805   3.754  0.1593  0.0702  0.0466
   38UNL      C  307   3.945   0.666   3.757 -0.1681 -0.7058  0.2229
   38UNL    CL1  308   4.021   0.655   3.919  0.1372 -0.5551 -0.2262
   38UNL    CL2  309   3.847   0.525   3.730  0.1579  0.0580 -0.2315
   38UNL      H  310   4.010   0.684   3.671  0.0618 -0.3039  0.4806
   39UNL     CL  311   0.977   0.532   0.202 -0.4089 -0.2342 -0.3899
   39UNL      C  312   1.010   0.535   0.019  0.1174  0.0199 -0.0484
   39UNL    CL1  313   0.929   0.680  -0.064  0.0532 -0.2977 -0.3464
   39UNL    CL2  314   1.197   0.534   0.012  0.1288  0.4848 -0.0966
   39UNL      H  315   0.965   0.444  -0.022 -0.8593  0.1114  0.7672
   40UNL     CL  316   2.627   2.129   0.645  0.1982  0.1912 -0.1562
   40UNL      C  317   2.624   2.037   0.484 -0.0200  0.3599  0.2114
   40UNL    CL1  318   2.782   2.062   0.398  0.0664  0.1214 -0.2830
   40UNL    CL2  319   2.581   1.863   0.495 -0.0108  0.1759  0.0495
   40UNL      H  320   2.548   2.093   0.428  0.3313 -0.5253 -1.2246
   41UNL     CL  321   3.766   0.215   2.637  0.0157  0.2639  0.0629
   41UNL      C  322   3.765   0.095   2.774 -0.5115  0.0077  0.2877
   41UNL    CL1  323   3.919  -0.007   2.784  0.1827  0.1092 -0.0917
   41UNL    CL2  324   3.734   0.195   2.921 -0.1141  0.2005 -0.1912
   41UNL      H  325   3.685   0.021   2.766  0.6378 -1.1250 -1.3946
   42UNL     CL  326   2.551   0.986   0.657 -0.1995  0.2055  0.0321
   42UNL      C  327   2.576   0.885   0.518 -0.6216  0.5565 -0.2886
   42UNL    CL1  328   2.421   0.816   0.468  0.1275  0.0092  0.3891
   42UNL    CL2  329   2.655   0.988   0.385  0.3070  0.2802 -0.1635
   42UNL      H  330   2.640   0.806   0.556 -0.9045  1.3269  1.9238
   43UNL     CL  331   2.122   2.286   3.017  0.0094  0.1300  0.4645
   43UNL      C  332   2.074   2.368   3.160 -0.8161  0.2923 -0.7044
   43UNL    CL1  333   2.037   2.527   3.099  0.4042 -0.3427 -0.4382
   43UNL    CL2  334   1.923   2.293   3.221 -0.0522  0.0738 -0.3953
   43UNL      H  335   2.155   2.372   3.234 -2.4735  1.0650  1.1692
   44UNL     CL  336   0.106   0.876   3.022 -0.0353  0.0332 -0.0188
   44UNL      C  337   0.049   0.804   3.173  0.2245  0.2004  0.3841
   44UNL    CL1  338  -0.108   0.889   3.224  0.1141  0.1023 -0.2796
   44UNL    CL2  339   0.032   0.623   3.120 -0.0303 -0.6216  0.0072
   44UNL      H  340   0.120   0.815   3.255 -1.1113  2.0248  1.3394
   45UNL     CL  341   1.246   3.701   1.441  0.3821 -0.0995 -0.2520
   45UNL      C  342   1.111   3.605   1.487 -0.3362 -0.3877  0.5886
   45UNL    CL1  343   0.998   3.592   1.347  0.5065  0.2341 -0.6978
   45UNL    CL2  344   1.170   3.447   1.556  0.2382  0.5686 -0.1590
   45UNL      H  345   1.061   3.652   1.572  1.1157  1.0766  0.6711
   46UNL     CL  346   2.721   0.271   2.917  0.1223  0.0371  0.0376
   46UNL      C  347   2.855   0.172   2.850  1.0483  0.0371  0.1108
   46UNL    CL1  348   2.868   0.216   2.678 -0.1236  0.3798 -0.3190
   46UNL    CL2  349   3.004   0.196   2.933  0.0258  0.2440 -0.1538
   46UNL      H  350   2.827   0.067   2.858  1.3761  0.0228  1.1994
   47UNL     CL  351   2.316   0.067   2.922 -0.2959 -0.1739 -0.1867
   47UNL      C  352   2.226   0.207   2.996  0.1787  0.4107  0.5136
   47UNL    CL1  353   2.295   0.353   2.916 -0.1106 -0.4345  0.2424
   47UNL    CL2  354   2.053   0.202   2.949 -0.3825  0.1714  0.1939
   47UNL      H  355   2.236   0.208   3.105  2.3855 -0.0008  0.3595
   48UNL     CL  356   2.291   1.409   1.056 -0.0108 -0.0238 -0.4314
   48UNL      C  357   2.417   1.410   0.935  0.3582  0.4577 -0.1579
   48UNL    CL1  358   2.566   1.472   1.004 -0.6414 -0.1892  0.1339
   48UNL    CL2  359   2.453   1.258   0.875 -0.2571 -0.0516  0.1374
   48UNL      H  360   2.383   1.470   0.850 -1.7356 -0.7754 -0.2742
   49UNL     CL  361   0.727   3.193   1.620  0.0697 -0.0268 -0.2239
   49UNL      C  362   0.611   3.197   1.475  0.1381  0.4202  0.2526
   49UNL    CL1  363   0.478   3.308   1.508 -0.0872  0.0442  0.2128
   49UNL    CL2  364   0.703   3.239   1.318  0.0273 -0.3373  0.0192
   49UNL      H  365   0.570   3.096   1.475  0.2044  0.3933  0.2563
   50UNL     CL  366   0.902   1.770   0.146  0.0184  0.0348 -0.0222
   50UNL      C  367   0.817   1.849   0.275  0.1119  0.9604 -0.1750
   50UNL    CL1  368   0.846   2.026   0.274 -0.3755 -0.3272  0.0851
   50UNL    CL2  369   0.642   1.817   0.265 -0.3240 -0.1512 -0.1200
   50UNL      H  370   0.860   1.806   0.367  0.8086  1.3402 -0.3204
   51UNL     CL  371   0.129   1.687   1.794 -0.3246  0.1758 -0.0355
   51UNL      C  372   0.036   1.785   1.668 -0.1588 -0.1120 -0.1734
   51UNL    CL1  373  -0.055   1.916   1.759 -0.2439 -0.5007 -0.3718
   51UNL    CL2  374   0.161   1.857   1.568 -0.0059 -0.1239  0.1364
   51UNL      H  375  -0.026   1.718   1.608  1.6992 -0.9324 -1.2390
   52UNL     CL  376   1.820   1.091   0.167 -0.2742  0.4953  0.0313
   52UNL      C  377   1.854   1.117   0.341 -0.0345  0.0470 -0.4724
   52UNL    CL1  378   1.976   0.999   0.389 -0.1479  0.2219 -0.1830
   52UNL    CL2  379   1.920   1.283   0.357  0.2276 -0.0168  0.1840
   52UNL      H  380   1.760   1.110   0.397 -0.1680  2.2106 -0.3439
   53UNL     CL  381   0.208   3.425   1.355 -0.3031 -0.1111  0.7025
   53UNL      C  382   0.192   3.559   1.477  0.3113 -0.6870 -0.2234
   53UNL    CL1  383   0.148   3.714   1.390 -0.5188 -0.3185 -0.1457
   53UNL    CL2  384   0.044   3.526   1.577 -0.0792 -0.1085 -0.0441
   53UNL      H  385   0.284   3.573   1.534 -0.6128 -0.4358  1.2482
   54UNL     CL  386   0.985   4.104   1.115  0.1957 -0.2081 -0.1385
   54UNL      C  387   0.817   4.118   1.058  0.3098 -0.8750 -0.4393
   54UNL    CL1  388   0.782   4.256   0.939  0.4295  0.1911 -0.5832
   54UNL    CL2  389   0.785   3.956   0.982  0.1174 -0.0585  0.3302
   54UNL      H  390   0.747   4.124   1.142  1.5127 -2.8769  0.7902
   55UNL     CL  391   3.540   0.402   0.232  0.2972 -0.1139  0.0372
   55UNL      C  392   3.458   0.242   0.196  0.1387 -0.1858 -0.0221
   55UNL    CL1  393   3.571   0.127   0.116  0.4341  0.0639  0.0484
   55UNL    CL2  394   3.407   0.173   0.351  0.0272 -0.2582  0.0195
   55UNL      H  395   3.370   0.267   0.136  1.0527  2.6190 -0.3384
   56UNL     CL  396   1.128   0.004   1.480  0.1089  0.1695 -0.3603
   56UNL      C  397   0.964   0.009   1.550 -0.1959 -0.2056  0.4141
   56UNL    CL1  398   0.871   0.146   1.474  0.1044 -0.0315 -0.1654
   56UNL    CL2  399   0.873  -0.155   1.521 -0.7488 -0.1057 -0.1984
   56UNL      H  400   0.978   0.025   1.657  0.1161  0.6981  0.2459
   57UNL     CL  401   0.540   1.432   3.989 -0.3449  0.0591  0.0167
   57UNL      C  402   0.541   1.529   4.143 -0.0535 -0.2568  0.1946
   57UNL    CL1  403   0.447   1.672   4.106 -0.3181 -0.0888 -0.1686
   57UNL    CL2  404   0.453   1.428   4.263 -0.0792  0.2703 -0.1592
   57UNL      H  405   0.639   1.554   4.185 -0.2242  1.0336 -0.1396
   58UNL     CL  406   2.917   1.684   3.606  0.3610 -0.2478 -0.3516
   58UNL      C  407   3.045   1.709   3.734  0.4343  0.0657 -0.4086
   58UNL    CL1  408   3.204   1.631   3.687  0.1244  0.1390  0.0602
   58UNL    CL2  409   3.080   1.881   3.759  0.0788  0.1384  0.6019
   58UNL      H  410   3.011   1.661   3.826  1.5067  0.1426  0.0414
   59UNL     CL  411   1.490   1.965   2.809  0.1339 -0.7330  0.4302
   59UNL      C  412   1.660   1.994   2.769  0.0560  0.6564 -0.1130
   59UNL    CL1  413   1.704   2.162   2.795  0.2403 -0.2495  0.0368
   59UNL    CL2  414   1.774   1.890   2.862 -0.2058  0.0552 -0.5134
   59UNL      H  415   1.666   1.964   2.664  0.2404 -1.8910  0.5714
   60UNL     CL  416   2.925   0.778   3.645  0.0277  0.0493  0.0776
   60UNL      C  417   3.041   0.655   3.707 -0.2523  0.4371  0.6273
   60UNL    CL1  418   3.149   0.742   3.827  0.0294 -0.8911  0.1209
   60UNL    CL2  419   2.944   0.517   3.794 -0.2633 -0.0363  0.0579
   60UNL      H  420   3.106   0.618   3.627 -0.3730  1.3366  0.1068
   61UNL     CL  421   0.466   0.673   1.794 -0.1933  0.0122 -0.4687
   61UNL      C  422   0.338   0.616   1.914 -0.6343  0.0813 -0.4147
   61UNL    CL1  423   0.348   0.436   1.943 -0.0546  0.2416 -0.2838
   61UNL    CL2  424   0.338   0.701   2.067  0.0813  0.0492  0.3993
   61UNL      H  425   0.239   0.634   1.871 -0.6946  0.2759 -0.1952
   62UNL     CL  426   3.232   0.598   0.526 -0.0087  0.1108 -0.1006
   62UNL      C  427   3.236   0.773   0.543  0.5069  0.2263 -0.3294
   62UNL    CL1  428   3.151   0.853   0.408 -0.0636  0.2822  0.3322
   62UNL    CL2  429   3.193   0.844   0.707  0.0275 -0.4075  0.1747
   62UNL      H  430   3.342   0.797   0.528  0.3922  1.5861  0.8502
   63UNL     CL  431   0.485   2.293   1.945 -0.0582 -0.0066 -0.3112
   63UNL      C  432   0.341   2.169   1.961 -0.1602 -0.2100 -0.4516
   63UNL    CL1  433   0.230   2.200   1.817  0.1680  0.1101  0.1264
   63UNL    CL2  434   0.406   2.000   1.953  0.3534  0.2202  0.3261
   63UNL      H  435   0.290   2.191   2.055  2.0581 -0.6966  0.9385
   64UNL     CL  436   2.324   1.057   2.520  0.4075 -0.3844  0.0821
   64UNL      C  437   2.250   1.214   2.462 -0.5700  0.4451  0.1057
   64UNL    CL1  438   2.332   1.350   2.530 -0.0744 -0.0824 -0.3136
   64UNL    CL2  439   2.246   1.226   2.283 -0.8440 -0.2001  0.2863
   64UNL      H  440   2.146   1.209   2.496 -1.3350  2.1960 -1.7656
   65UNL     CL  441   3.228   3.876   1.911 -0.2051  0.2223 -0.3234
   65UNL      C  442   3.186   3.813   1.749 -0.4451  0.3672  0.1090
   65UNL    CL1  443   3.039   3.893   1.675 -0.1293 -0.1294 -0.3834
   65UNL    CL2  444   3.332   3.842   1.642 -0.1513  0.0714  0.1194
   65UNL      H  445   3.175   3.704   1.758  1.6517  0.1249  0.2271
   66UNL     CL  446   3.511   2.222   2.532 -0.0942  0.1241  0.0145
   66UNL      C  447   3.396   2.333   2.439 -0.2119 -0.0932  0.3768
   66UNL    CL1  448   3.470   2.489   2.413 -0.2846  0.2219 -0.4929
   66UNL    CL2  449   3.362   2.255   2.281 -0.1095 -0.0713  0.1716
   66UNL      H  450   3.301   2.344   2.492 -1.4836 -1.4214 -1.4933
   67UNL     CL  451   3.333   3.744   2.941 -0.1393  0.6569 -0.3321
   67UNL      C  452   3.277   3.895   2.856  0.5080 -0.4217 -0.4094
   67UNL    CL1  453   3.182   3.991   2.964  0.3226  0.0598 -0.3646
   67UNL    CL2  454   3.425   3.990   2.814 -0.2961  0.4863  0.0599
   67UNL      H  455   3.216   3.872   2.768  1.3566  0.8029 -1.3540
   68UNL     CL  456   1.318   1.502   2.518 -0.0886  0.2956  0.2079
   68UNL      C  457   1.328   1.333   2.567 -0.0642  0.0463 -0.7621
   68UNL    CL1  458   1.441   1.248   2.463 -0.1618  0.0827  0.2525
   68UNL    CL2  459   1.400   1.315   2.733 -0.1927 -0.3674 -0.0771
   68UNL      H  460   1.228   1.288   2.568  0.1764 -0.6274  2.3198
   69UNL     CL  461   0.452   4.060   1.834 -0.1505 -0.0845  0.1401
   69UNL      C  462   0.514   4.228   1.793  0.2837  0.0446 -0.2492
   69UNL    CL1  463   0.693   4.219   1.770  0.1017 -0.5149  0.4212
   69UNL    CL2  464   0.435   4.287   1.636 -0.1175  0.5565 -0.4952
   69UNL      H  465   0.487   4.298   1.873  0.8335  1.2919 -1.1163
   70UNL     CL  466   3.562   3.251   2.628 -0.2933 -0.0384 -0.0566
   70UNL      C  467   3.636   3.415   2.677 -0.0235 -0.3265 -0.2499
   70UNL    CL1  468   3.711   3.499   2.536  0.2308  0.3248 -0.0500
   70UNL    CL2  469   3.512   3.522   2.744 -0.2524  0.0172  0.0012
   70UNL      H  470   3.715   3.402   2.752 -0.0662 -0.3293 -0.2049
   71UNL     CL  471   0.504   2.217   0.065 -0.2062  0.2181  0.5238
   71UNL      C  472   0.343   2.280   0.094 -0.4260  0.2957  0.6008
   71UNL    CL1  473   0.317   2.263   0.279 -0.0152  0.1172 -0.0386
   71UNL    CL2  474   0.329   2.445   0.032  0.3493  0.1422 -0.1037
   71UNL      H  475   0.269   2.226   0.035  0.3891  0.3760 -0.5415
   72UNL     CL  476   2.801   3.596   0.354 -0.1873 -0.4554  0.0600
   72UNL      C  477   2.747   3.453   0.431  0.2102 -0.1017 -0.4315
   72UNL    CL1  478   2.608   3.374   0.351 -0.0073  0.0514  0.2814
   72UNL    CL2  479   2.883   3.341   0.423  0.2730  0.2133  0.3663
   72UNL      H  480   2.711   3.473   0.533 -2.0348  1.5933 -1.4877
   73UNL     CL  481   0.791   0.986   2.086 -0.1209 -0.3378 -0.2123
   73UNL      C  482   0.897   0.846   2.123  0.0680 -0.1732  0.3733
   73UNL    CL1  483   0.892   0.813   2.298 -0.6874  0.3033 -0.2661
   73UNL    CL2  484   0.815   0.703   2.038  0.0505 -0.4631  0.1235
   73UNL      H  485   0.993   0.874   2.078 -1.0419 -2.9756 -4.4847
   74UNL     CL  486   2.593   2.902   3.694  0.1662 -0.0860  0.1081
   74UNL      C  487   2.506   3.048   3.624 -0.2826 -0.2909 -0.5119
   74UNL    CL1  488   2.592   3.197   3.688 -0.1278 -0.1328 -0.1161
   74UNL    CL2  489   2.492   3.051   3.454  0.1057 -0.2922  0.0364
   74UNL      H  490   2.407   3.043   3.670 -0.6055  0.4175 -1.1130
   75UNL     CL  491   1.982   2.473   2.334  0.1567  0.5852 -0.0741
   75UNL      C  492   2.146   2.554   2.362  0.6551  0.4192  0.4695
   75UNL    CL1  493   2.106   2.696   2.476 -0.1167  0.3438 -0.1345
   75UNL    CL2  494   2.256   2.434   2.436  0.1293 -0.3400  0.1886
   75UNL      H  495   2.190   2.587   2.267  0.5234  1.3688  0.7274
   76UNL     CL  496   2.346   3.589   2.800 -0.0831  0.3230 -0.4697
   76UNL      C  497   2.424   3.684   2.670 -0.5827  0.2174 -0.3634
   76UNL    CL1  498   2.370   3.643   2.504  0.1502 -0.0082  0.2797
   76UNL    CL2  499   2.392   3.859   2.699  0.5211 -0.4739  0.1641
   76UNL      H  500   2.532   3.670   2.675 -0.7796 -1.1154  0.8203
   77UNL     CL  501   0.459   2.999   2.549  0.1430  0.4075 -0.3218
   77UNL      C  502   0.287   3.000   2.490 -0.4094  0.1608  0.4881
   77UNL    CL1  503   0.241   2.835   2.450  0.2654 -0.0229  0.2572
   77UNL    CL2  504   0.194   3.056   2.628  0.2087 -0.7000  0.5499
   77UNL      H  505   0.279   3.075   2.411 -1.2419  0.3053  0.7002
   78UNL     CL  506   1.178   2.441   3.974 -0.3887 -0.3750 -0.1107
   78UNL      C  507   1.212   2.617   4.012 -0.3141  0.1427 -0.2347
   78UNL    CL1  508   1.251   2.651   4.184  0.1177 -0.2171  0.0559
   78UNL    CL2  509   1.349   2.673   3.919 -0.0510 -0.4037  0.2094
   78UNL      H  510   1.121   2.670   3.982 -0.5213 -0.8290 -1.3887
   79UNL     CL  511   2.453   2.029   0.190 -0.0179 -0.0110 -0.1552
   79UNL      C  512   2.378   1.892   0.094 -0.3064  0.0136  0.1366
   79UNL    CL1  513   2.501   1.766   0.064 -0.2387  0.1652  0.4595
   79UNL    CL2  514   2.246   1.794   0.187 -0.0103 -0.0201  0.3039
   79UNL      H  515   2.340   1.932  -0.000 -3.3592  1.5506  1.8766
   80UNL     CL  516   0.840   3.994   2.557  0.1620  0.0050  0.4152
   80UNL      C  517   0.689   4.031   2.644 -0.1209 -0.3083  0.2642
   80UNL    CL1  518   0.578   3.883   2.646 -0.2060 -0.0195 -0.2228
   80UNL    CL2  519   0.727   4.078   2.814  0.1711  0.3732  0.1434
   80UNL      H  520   0.630   4.116   2.606 -0.3254  0.0674  1.3753
   81UNL     CL  521   2.758   3.980   3.114 -0.3880  0.2429 -0.3909
   81UNL      C  522   2.704   3.804   3.133 -0.1129  0.4022 -0.2798
   81UNL    CL1  523   2.758   3.721   3.295 -0.2249 -0.0639  0.1287
   81UNL    CL2  524   2.526   3.790   3.123 -0.0032  0.0760  0.3562
   81UNL      H  525   2.740   3.739   3.052  2.2498  0.4948  0.6166
   82UNL     CL  526   0.884   4.056   0.058  0.0315 -0.2471 -0.7570
   82UNL      C  527   1.057   4.100   0.079  0.8116 -0.6343 -0.3919
   82UNL    CL1  528   1.096   4.256   0.010  0.1925 -0.4259  0.1116
   82UNL    CL2  529   1.109   4.099   0.256  0.3068 -0.1602  0.2427
   82UNL      H  530   1.117   4.019   0.035 -1.5315 -3.9136  1.9474
   83UNL     CL  531   3.464   1.676   2.663  0.2855  0.2732 -0.0650
   83UNL      C  532   3.461   1.508   2.727 -0.1166  0.1956 -0.5445
   83UNL    CL1  533   3.602   1.402   2.687 -0.5128 -0.0384  0.4155
   83UNL    CL2  534   3.456   1.532   2.903  0.2595 -0.3618  0.2459
   83UNL      H  535   3.366   1.458   2.702 -0.3150  0.5379 -0.4791
   84UNL     CL  536   1.473   2.334   4.030  0.0505 -0.1568 -0.1232
   84UNL      C  537   1.554   2.303   4.187  0.6290 -0.7977  0.0315
   84UNL    CL1  538   1.641   2.150   4.186  0.5067  0.2081  0.2405
   84UNL    CL2  539   1.664   2.444   4.233  0.0499 -0.3097  0.0036
   84UNL      H  540   1.474   2.284   4.260 -1.4102 -2.0266 -2.3715
   85UNL     CL  541   0.987   3.450   3.814  0.2427 -0.3100 -0.1611
   85UNL      C  542   1.049   3.431   3.978 -0.4078  0.1797  0.0458
   85UNL    CL1  543   1.218   3.482   3.977  0.0106 -0.1554 -0.1558
   85UNL    CL2  544   0.957   3.528   4.099  0.2513  0.2483 -0.0441
   85UNL      H  545   1.033   3.327   4.010 -1.2695  0.7650  1.6149
   86UNL     CL  546   3.023   2.066   1.961  0.0881  0.1192  0.2384
   86UNL      C  547   2.971   1.984   1.812 -0.5196  0.3282  0.8580
   86UNL    CL1  548   3.084   1.856   1.795  0.3296  0.2234  0.2353
   86UNL    CL2  549   2.800   1.912   1.808 -0.6028  0.1031 -0.2384
   86UNL      H  550   2.984   2.056   1.731  2.1575 -1.4982 -0.5019
   87UNL     CL  551   0.252   1.111   0.303 -0.3383 -0.2907  0.0835
   87UNL      C  552   0.351   1.044   0.439  0.1654 -0.2920 -0.1440
   87UNL    CL1  553   0.522   0.992   0.395 -0.0819  0.0156 -0.0039
   87UNL    CL2  554   0.364   1.167   0.573  0.0474  0.1049 -0.3643
   87UNL      H  555   0.282   0.964   0.466 -1.7125  0.8858 -1.2019
   88UNL     CL  556   0.491   2.547   2.504  0.2975 -0.1133 -0.0371
   88UNL      C  557   0.562   2.563   2.337 -0.8450  0.6134  0.1455
   88UNL    CL1  558   0.474   2.676   2.236 -0.0507 -0.3136 -0.1644
   88UNL    CL2  559   0.732   2.595   2.342 -0.1925  0.1165  0.5299
   88UNL      H  560   0.553   2.465   2.289  3.4456 -0.3929  1.0369
   89UNL     CL  561   1.636   0.314   3.607 -0.1480 -0.0264 -0.5377
   89UNL      C  562   1.684   0.490   3.628 -0.0528 -0.3811 -0.3115
   89UNL    CL1  563   1.672   0.550   3.450  0.0162 -0.1274  0.0541
   89UNL    CL2  564   1.561   0.576   3.731 -0.1400 -0.2316 -0.2959
   89UNL      H  565   1.786   0.510   3.662 -1.4551  0.7180  3.9122
   90UNL     CL  566   3.404   3.665   2.123 -0.1380  0.3151  0.4401
   90UNL      C  567   3.365   3.745   2.276  0.1183  0.0381 -0.2577
   90UNL    CL1  568   3.186   3.778   2.291  0.2403  0.1385  0.1825
   90UNL    CL2  569   3.401   3.636   2.421 -0.3051  0.2181  0.0731
   90UNL      H  570   3.416   3.842   2.275  0.3880 -0.0794  0.6353
   91UNL     CL  571   3.289   3.217   3.961  0.0708 -0.0503  0.3842
   91UNL      C  572   3.282   3.332   4.099 -0.3592 -0.4299 -0.4344
   91UNL    CL1  573   3.277   3.508   4.035 -0.2159  0.3392 -0.4826
   91UNL    CL2  574   3.138   3.305   4.204 -0.3647 -0.0282  0.1036
   91UNL      H  575   3.369   3.313   4.163  2.1793  1.1472 -3.1704
   92UNL     CL  576   0.926   0.543   1.113 -0.1892  0.0199 -0.1543
   92UNL      C  577   0.898   0.537   1.295 -0.8503  0.3428  0.4815
   92UNL    CL1  578   0.723   0.500   1.342  0.2377 -0.3810 -0.1469
   92UNL    CL2  579   1.018   0.439   1.380  0.3440  0.0513 -0.2563
   92UNL      H  580   0.919   0.643   1.316  0.0795  0.2209  0.1926
   93UNL     CL  581   2.790   2.458   1.522  0.0487 -0.1532 -0.1983
   93UNL      C  582   2.855   2.621   1.484 -0.1280  0.1394 -1.1764
   93UNL    CL1  583   3.013   2.622   1.588  0.1693 -0.0373 -0.1002
   93UNL    CL2  584   2.883   2.643   1.310 -0.0569  0.0624 -0.0692
   93UNL      H  585   2.784   2.697   1.517 -0.5037  0.3452 -2.4116
   94UNL     CL  586   2.175   3.350   2.453 -0.1784  0.4257 -0.1821
   94UNL      C  587   2.083   3.198   2.429  0.0667 -0.2398 -0.1437
   94UNL    CL1  588   2.201   3.058   2.424  0.5062 -0.1979 -0.0787
   94UNL    CL2  589   1.960   3.180   2.561 -0.4259 -0.1015  0.1170
   94UNL      H  590   2.027   3.214   2.336  0.7098 -0.4896 -0.5844
   95UNL     CL  591   2.484   1.470   3.227 -0.1139  0.3246 -0.0259
   95UNL      C  592   2.635   1.534   3.289 -0.1688 -0.0522  0.5722
   95UNL    CL1  593   2.763   1.409   3.273  0.3491  0.3093  0.3195
   95UNL    CL2  594   2.699   1.665   3.192 -0.1001 -0.3709 -0.0222
   95UNL      H  595   2.630   1.564   3.395  0.7067 -0.7061  0.8053
   96UNL     CL  596   0.169   0.287   2.767 -0.0088  0.3243  0.1351
   96UNL      C  597   0.073   0.415   2.683  0.1414  0.3581  0.1959
   96UNL    CL1  598   0.007   0.348   2.526 -0.1522  0.3596 -0.0250
   96UNL    CL2  599  -0.055   0.492   2.788  0.0826 -0.1220  0.0839
   96UNL      H  600   0.143   0.496   2.660 -0.4274  0.5775 -0.8219
   97UNL     CL  601   0.131   1.795   3.329 -0.0138  0.1404  0.1479
   97UNL      C  602   0.250   1.898   3.419 -0.2520 -0.8826 -0.0899
   97UNL    CL1  603   0.414   1.821   3.434  0.5652  0.2062 -0.0206
   97UNL    CL2  604   0.267   2.053   3.322  0.2270 -0.4385  0.1438
   97UNL      H  605   0.215   1.929   3.518 -0.6049  1.4504 -0.9021
   98UNL     CL  606   2.159   2.712   0.903  0.0949 -0.1262 -0.0232
   98UNL      C  607   2.262   2.682   0.762 -0.4051  0.4877 -0.3086
   98UNL    CL1  608   2.175   2.690   0.611  0.1802 -0.3837  0.2242
   98UNL    CL2  609   2.407   2.779   0.754  0.2053 -0.2984  0.1438
   98UNL      H  610   2.298   2.579   0.765  1.0131  0.9441 -0.4408
   99UNL     CL  611   3.834   1.702   3.271 -0.2383 -0.1702  0.2005
   99UNL      C  612   3.758   1.841   3.350 -0.2118 -0.7992 -0.7286
   99UNL    CL1  613   3.577   1.805   3.368  0.2548  0.0438  0.0172
   99UNL    CL2  614   3.836   1.876   3.514  0.3921  0.5178  0.2117
   99UNL      H  615   3.777   1.925   3.283 -0.9983 -1.1619 -1.4247
  100UNL     CL  616   2.066   3.787   3.022 -0.0941  0.0368  0.4489
  100UNL      C  617   2.144   3.874   3.164 -0.7866 -0.2291  0.4283
  100UNL    CL1  618   2.065   4.027   3.180  0.2519 -0.2679 -0.2126
  100UNL    CL2  619   2.122   3.769   3.317  0.2967 -0.0608 -0.1163
  100UNL      H  620   2.250   3.896   3.148 -0.7835 -0.7399 -0.3384
  101UNL     CL  621   1.065   1.178   1.336  0.0788 -0.1020 -0.5917
  101UNL      C  622   0.959   1.255   1.202 -1.1935  0.7622 -0.7886
  101UNL    CL1  623   0.930   1.147   1.072  0.5294  0.2354 -0.1867
  101UNL    CL2  624   0.815   1.305   1.286  0.5299 -0.3576  0.0672
  101UNL      H  625   1.012   1.341   1.158  3.0176 -0.5395  1.1419
  102UNL     CL  626   3.728   1.274   0.223  0.4383 -0.0182 -0.1433
  102UNL      C  627   3.597   1.174   0.292 -0.2201  0.1138  0.4608
  102UNL    CL1  628   3.506   1.251   0.420 -0.0963  0.5118 -0.1552
  102UNL    CL2  629   3.490   1.108   0.163  0.0023  0.0628  0.3492
  102UNL      H  630   3.643   1.085   0.338  0.6695  0.6014  0.5297
  103UNL     CL  631   1.846   3.024   0.376 -0.4659 -0.2233 -0.2998
  103UNL      C  632   1.988   2.931   0.329 -0.3162  0.5855 -0.3296
  103UNL    CL1  633   2.003   2.916   0.157 -0.1442  0.3363  0.2617
  103UNL    CL2  634   2.145   3.005   0.384 -0.1507 -0.0520 -0.3094
  103UNL      H  635   1.967   2.834   0.377 -1.3483  1.9813  2.2557
  104UNL     CL  636   2.417   3.223   1.601  0.0884  0.5514  0.1978
  104UNL      C  637   2.405   3.244   1.780  0.4260  0.0832 -0.7231
  104UNL    CL1  638   2.253   3.172   1.839 -0.2877 -0.2803 -0.1437
  104UNL    CL2  639   2.548   3.185   1.879  0.1418  0.0241 -0.1991
  104UNL      H  640   2.390   3.351   1.798  0.1303 -0.1870  0.8346
  105UNL     CL  641   2.801   1.939   2.234  0.1372  0.0822  0.1660
  105UNL      C  642   2.754   1.790   2.146 -0.3379  0.3102  0.5829
  105UNL    CL1  643   2.603   1.812   2.046 -0.3570 -0.1066  0.0569
  105UNL    CL2  644   2.895   1.700   2.053  0.3562  0.0119  0.0970
  105UNL      H  645   2.721   1.718   2.221  0.0508  1.1298  1.5586
  106UNL     CL  646   1.509   3.640   0.721  0.4524  0.2930 -0.3064
  106UNL      C  647   1.396   3.495   0.706  0.4984  0.2727  0.4961
  106UNL    CL1  648   1.384   3.452   0.529 -0.5768  0.0576 -0.1876
  106UNL    CL2  649   1.480   3.359   0.796  0.1981  0.4070 -0.1695
  106UNL      H  650   1.295   3.514   0.744  0.1623 -1.0239  0.3010
  107UNL     CL  651   1.391   1.988   3.885 -0.1117 -0.0810 -0.1662
  107UNL      C  652   1.269   1.900   3.984 -0.0750 -0.3698 -0.0635
  107UNL    CL1  653   1.246   1.974   4.150  0.3957 -0.0236  0.4028
  107UNL    CL2  654   1.123   1.884   3.885 -0.2966  0.3669 -0.7691
  107UNL      H  655   1.313   1.800   3.991 -0.3896 -0.5180 -0.1832
  108UNL     CL  656   0.912   2.627   0.178  0.1232  0.2648  0.4546
  108UNL      C  657   0.923   2.727   0.326  0.4688 -0.0188 -0.0329
  108UNL    CL1  658   0.778   2.696   0.421  0.0015  0.2807  0.0890
  108UNL    CL2  659   1.070   2.693   0.408  0.1058 -0.3204  0.0133
  108UNL      H  660   0.928   2.831   0.294 -0.9295 -0.0475 -0.3986
  109UNL     CL  661   1.036   3.785   0.329 -0.0658  0.2562 -0.0327
  109UNL      C  662   0.962   3.766   0.496  0.3669  0.8814 -0.4954
  109UNL    CL1  663   1.061   3.640   0.584  0.1472 -0.1322  0.2557
  109UNL    CL2  664   0.986   3.918   0.575 -0.2230  0.3530  0.0341
  109UNL      H  665   0.856   3.737   0.494  0.8420 -1.2650  0.9143
  110UNL     CL  666   2.553   3.306   4.045  0.1571 -0.4575  0.1860
  110UNL      C  667   2.533   3.473   3.985  0.0720 -0.6140 -0.3611
  110UNL    CL1  668   2.393   3.471   3.864 -0.4319 -0.4359 -0.6420
  110UNL    CL2  669   2.493   3.563   4.138  0.2741  0.1639 -0.0483
  110UNL      H  670   2.625   3.514   3.941 -0.6741  0.8065 -0.6630
  111UNL     CL  671   2.386   1.139   3.403  0.3271  0.6489 -0.0641
  111UNL      C  672   2.438   1.025   3.278 -0.4812 -0.6805 -0.0190
  111UNL    CL1  673   2.623   1.011   3.298  0.1709  0.0625 -0.1138
  111UNL    CL2  674   2.369   0.856   3.300  0.0037  0.0441 -0.0343
  111UNL      H  675   2.418   1.063   3.178  1.2819 -2.9312 -1.3126
  112UNL     CL  676   1.436   2.497   3.579 -0.0235 -0.3473  0.0814
  112UNL      C  677   1.259   2.478   3.632 -0.0416  0.0297  0.1355
  112UNL    CL1  678   1.172   2.642   3.621 -0.3963  0.0013  0.3407
  112UNL    CL2  679   1.163   2.341   3.551  0.3147 -0.0053 -0.0725
  112UNL      H  680   1.260   2.461   3.740  0.8180  0.9727  0.2908
  113UNL     CL  681   1.807   1.746   0.364  0.1628  0.4617 -0.3645
  113UNL      C  682   1.707   1.838   0.251  0.7549  0.3969 -0.9850
  113UNL    CL1  683   1.688   1.740   0.092 -0.2976  0.2355 -0.2536
  113UNL    CL2  684   1.545   1.862   0.320  0.4628  0.6972 -0.2737
  113UNL      H  685   1.757   1.934   0.237  0.0190  0.9627  0.1330
  114UNL     CL  686   3.148   0.495   2.906  0.1380  0.1827  0.2338
  114UNL      C  687   3.160   0.675   2.964  0.1776 -0.0558 -0.0377
  114UNL    CL1  688   3.289   0.695   3.080  0.0797 -0.1085  0.0014
  114UNL    CL2  689   3.182   0.785   2.814 -0.4620 -0.1831 -0.0655
  114UNL      H  690   3.066   0.700   3.014  0.4161  0.3137  0.2297
  115UNL     CL  691   0.606   1.953   1.600  0.1594  0.1520  0.0656
  115UNL      C  692   0.617   2.132   1.628 -0.1190 -0.3275 -0.1534
  115UNL    CL1  693   0.765   2.193   1.528 -0.2086  0.1187 -0.0670
  115UNL    CL2  694   0.462   2.207   1.571 -0.1923 -0.4035  0.0126
  115UNL      H  695   0.628   2.149   1.735 -1.5236 -1.4688  0.2080
  116UNL     CL  696   3.754   3.223   1.800  0.3215 -0.0327  0.0853
  116UNL      C  697   3.862   3.109   1.885 -0.3825  0.3048  0.4068
  116UNL    CL1  698   3.937   2.989   1.764 -0.2972 -0.1079  0.1344
  116UNL    CL2  699   3.976   3.198   1.979 -0.0227 -0.1353 -0.0499
  116UNL      H  700   3.804   3.048   1.954  0.8840  0.3861  1.5861
  117UNL     CL  701   1.436   0.089   1.642 -0.2605 -0.2280 -0.5190
  117UNL      C  702   1.409   0.207   1.763  0.2185 -0.5623 -0.5553
  117UNL    CL1  703   1.256   0.312   1.726  0.1479  0.2958 -0.1268
  117UNL    CL2  704   1.387   0.130   1.924 -0.1388 -0.3080  0.2109
  117UNL      H  705   1.496   0.274   1.761 -1.0666  1.1907 -0.4092
  118UNL     CL  706   3.134   0.098   1.333 -0.5063 -0.2521 -0.0537
  118UNL      C  707   3.195   0.121   1.163 -0.5349  0.6448 -0.5112
  118UNL    CL1  708   3.201  -0.045   1.080 -0.1086 -0.0272  0.0763
  118UNL    CL2  709   3.078   0.235   1.082 -0.0306 -0.1728  0.1190
  118UNL      H  710   3.296   0.163   1.165  1.1477 -2.9960  2.0923
  119UNL     CL  711   0.207   3.379   0.517  0.1088  0.0591 -0.1446
  119UNL      C  712   0.176   3.489   0.374  0.3801  0.1854 -0.2324
  119UNL    CL1  713   0.004   3.512   0.343 -0.4013 -0.4265 -0.3410
  119UNL    CL2  714   0.229   3.653   0.406  0.0214 -0.1381  0.2057
  119UNL      H  715   0.216   3.446   0.281 -1.6906 -1.5779 -0.3857
  120UNL     CL  716   1.177   2.903   3.133  0.3847  0.0931 -0.2882
  120UNL      C  717   1.098   2.941   2.973 -0.7829  0.0630  0.0187
  120UNL    CL1  718   1.096   2.780   2.880  0.1285  0.0849 -0.1514
  120UNL    CL2  719   0.928   2.995   2.997 -0.1741 -0.2718  0.0504
  120UNL      H  720   1.155   3.016   2.918 -0.8174  1.0207  1.2281
  121UNL     CL  721   1.522   3.255   0.277 -0.5330 -0.0678  0.3388
  121UNL      C  722   1.597   3.327   0.128 -0.2383 -0.6300 -0.0856
  121UNL    CL1  723   1.782   3.295   0.109 -0.1130  0.2545  0.0956
  121UNL    CL2  724   1.515   3.288  -0.038 -0.0692 -0.4150 -0.0238
  121UNL      H  725   1.589   3.435   0.137 -0.1130 -0.1083 -4.2106
  122UNL     CL  726   3.070   1.208   1.886 -0.1225 -0.1752 -0.2135
  122UNL      C  727   3.220   1.305   1.819 -0.3393  0.4575 -0.2556
  122UNL    CL1  728   3.333   1.202   1.725  0.0055 -0.1201 -0.2811
  122UNL    CL2  729   3.170   1.442   1.721  0.1725 -0.3928  0.3141
  122UNL      H  730   3.267   1.345   1.909 -0.9589 -0.3224  0.4293
  123UNL     CL  731   1.514   0.488   0.778 -0.4960 -0.0302  0.2527
  123UNL      C  732   1.599   0.541   0.617 -0.1293 -0.9095  0.0862
  123UNL    CL1  733   1.623   0.403   0.520  0.0919  0.2771 -0.3380
  123UNL    CL2  734   1.520   0.661   0.521  0.4010  0.2863  0.0298
  123UNL      H  735   1.701   0.575   0.638 -0.5115  0.6053 -0.4361
  124UNL     CL  736   2.439   3.928   1.262  0.0112  0.2134  0.1141
  124UNL      C  737   2.289   3.868   1.182 -0.6296  0.1980  0.0383
  124UNL    CL1  738   2.309   3.787   1.026  0.0684  0.2731  0.0130
  124UNL    CL2  739   2.193   3.750   1.284  0.3115  0.1691 -0.1455
  124UNL      H  740   2.229   3.959   1.177 -1.9739 -0.3133  3.5329
  125UNL     CL  741   1.609   4.105   3.712 -0.3077 -0.4009  0.2030
  125UNL      C  742   1.734   4.066   3.835  0.1489  0.0904 -0.2621
  125UNL    CL1  743   1.818   4.218   3.898 -0.0804 -0.5837  0.3041
  125UNL    CL2  744   1.658   3.969   3.965 -0.1421 -0.2174  0.0385
  125UNL      H  745   1.810   4.006   3.785 -0.6101  0.5017 -1.9940
  126UNL     CL  746   2.773   1.326   0.380  0.3478  0.0059  0.0429
  126UNL      C  747   2.895   1.429   0.299 -0.2605  0.3212  0.4109
  126UNL    CL1  748   3.021   1.321   0.241 -0.0339  0.2211  0.1026
  126UNL    CL2  749   2.796   1.498   0.167 -0.0472 -0.0069 -0.0019
  126UNL      H  750   2.934   1.513   0.356  1.8062  3.7009 -5.1560
  127UNL     CL  751   0.606   0.300   3.895 -0.0415  0.2115  0.7129
  127UNL      C  752   0.758   0.359   3.964  0.0061 -1.0436 -0.1958
  127UNL    CL1  753   0.757   0.297   4.125 -0.0686 -0.0509  0.1519
  127UNL    CL2  754   0.902   0.298   3.872 -0.1555 -0.5317  0.0341
  127UNL      H  755   0.761   0.469   3.970 -1.4248 -1.0731  2.0437
  128UNL     CL  756   2.272   1.774   2.005 -0.0740 -0.1543 -0.1259
  128UNL      C  757   2.214   1.740   1.845 -0.9997 -0.4235  0.3145
  128UNL    CL1  758   2.313   1.622   1.751  0.5629  0.2435  0.1368
  128UNL    CL2  759   2.051   1.672   1.859 -0.3452  0.0763  0.1483
  128UNL      H  760   2.215   1.830   1.782  0.8791 -0.4572  0.2451
  129UNL     CL  761   3.280   2.463   1.272  0.0115  0.3434  0.1349
  129UNL      C  762   3.195   2.298   1.252  1.0370 -0.2203  0.0240
  129UNL    CL1  763   3.033   2.310   1.310  0.1338 -0.2365  0.0050
  129UNL    CL2  764   3.201   2.252   1.079 -0.0643  0.1662 -0.2474
  129UNL      H  765   3.258   2.225   1.304  2.8526  1.5091  0.3902
  130UNL     CL  766   3.467   1.600   2.322 -0.1174  0.1158  0.0957
  130UNL      C  767   3.359   1.629   2.179  0.2593  0.8342 -0.9321
  130UNL    CL1  768   3.448   1.605   2.025 -0.1418  0.6530 -0.2191
  130UNL    CL2  769   3.222   1.512   2.188 -0.1196  0.0850  0.2147
  130UNL      H  770   3.315   1.728   2.190 -1.9260 -0.1591 -0.1768
  131UNL     CL  771   0.298   3.940   4.071  0.3538 -0.0800 -0.3387
  131UNL      C  772   0.199   4.046   4.181 -0.0534 -0.0973  0.2003
  131UNL    CL1  773   0.278   4.200   4.210  0.0005 -0.4725 -0.3087
  131UNL    CL2  774   0.025   4.081   4.122  0.2541  0.1159  0.0551
  131UNL      H  775   0.184   4.004   4.280 -0.8955  0.9838  0.5557
  132UNL     CL  776   1.654   1.120   1.360 -0.1156 -0.0102  0.0076
  132UNL      C  777   1.814   1.178   1.405  0.7192  0.3880  0.5433
  132UNL    CL1  778   1.850   1.309   1.289  0.0718  0.2812 -0.3177
  132UNL    CL2  779   1.827   1.236   1.573  0.1616  0.0584  0.2080
  132UNL      H  780   1.889   1.100   1.384  1.4705  1.3823 -0.6018
  133UNL     CL  781   1.129   1.274   3.524 -0.4434  0.3660  0.0125
  133UNL      C  782   1.198   1.435   3.472 -0.4582 -0.2097  0.0871
  133UNL    CL1  783   1.292   1.515   3.610  0.3780  0.0635 -0.0158
  133UNL    CL2  784   1.298   1.427   3.320 -0.1200  0.5386 -0.1076
  133UNL      H  785   1.118   1.507   3.452  1.1537  1.2514 -1.5050
  134UNL     CL  786   0.106   3.064   1.159  0.2421  0.1063  0.0879
  134UNL      C  787   0.289   3.043   1.170  0.4158  0.0184 -0.0403
  134UNL    CL1  788   0.340   2.923   1.042  0.4640  0.0928 -0.0744
  134UNL    CL2  789   0.374   3.196   1.143 -0.1521 -0.0607 -0.5631
  134UNL      H  790   0.322   3.001   1.265  0.2272 -2.1224 -0.8793
  135UNL     CL  791   0.893   1.727   1.189 -0.1374 -0.2982  0.1182
  135UNL      C  792   0.885   1.875   1.291 -0.1295  0.1300  0.5861
  135UNL    CL1  793   1.025   1.878   1.403  0.1495 -0.0418 -0.0729
  135UNL    CL2  794   0.864   2.030   1.204  0.2671  0.3439  0.1237
  135UNL      H  795   0.792   1.879   1.350 -0.7189  1.7564 -0.3859
  136UNL     CL  796   3.389   3.303   1.494  0.3044  0.3100 -0.2954
  136UNL      C  797   3.501   3.426   1.434 -0.2104 -0.4754  0.2307
  136UNL    CL1  798   3.423   3.591   1.435  0.0573  0.2566 -0.2434
  136UNL    CL2  799   3.650   3.430   1.543  0.1990  0.2397  0.2496
  136UNL      H  800   3.525   3.407   1.329  1.8281  0.7553  0.4135
  137UNL     CL  801   1.647   0.667   1.291  0.1766 -0.0642 -0.0490
  137UNL      C  802   1.701   0.692   1.114  0.5240  0.2023 -1.0890
  137UNL    CL1  803   1.591   0.785   1.018 -0.2973  0.2756  0.0491
  137UNL    CL2  804   1.864   0.772   1.112  0.4699  0.0570 -0.0100
  137UNL      H  805   1.710   0.590   1.075 -0.1490 -0.0738 -0.5612
  138UNL     CL  806   2.259   2.164   2.721  0.2999  0.0555 -0.1903
  138UNL      C  807   2.164   2.079   2.593 -0.0584 -0.9686 -0.5606
  138UNL    CL1  808   2.272   2.031   2.460  0.0483  0.2807 -0.2353
  138UNL    CL2  809   2.086   1.936   2.661 -0.1088  0.5276  0.2301
  138UNL      H  810   2.091   2.153   2.557 -0.7466 -0.5516  1.5386
  139UNL     CL  811   3.627   3.626   4.114 -0.0228 -0.2629  0.2937
  139UNL      C  812   3.631   3.715   3.955  0.2056  0.1415  0.0807
  139UNL    CL1  813   3.623   3.893   3.982 -0.4450 -0.1675 -0.0013
  139UNL    CL2  814   3.771   3.667   3.855  0.0468 -0.1332 -0.3969
  139UNL      H  815   3.538   3.698   3.899  0.1007  2.1213 -0.4132
  140UNL     CL  816   3.837   3.408   3.020 -0.0416 -0.1546  0.0420
  140UNL      C  817   3.705   3.285   3.053 -0.2256  0.6111 -0.4815
  140UNL    CL1  818   3.762   3.139   3.153 -0.2591 -0.3361 -0.0832
  140UNL    CL2  819   3.564   3.364   3.128 -0.2482 -0.1380  0.1158
  140UNL      H  820   3.664   3.239   2.962  0.4143 -0.6340 -0.1701
  141UNL     CL  821   3.753   3.830   2.348 -0.3496  0.0735 -0.3840
  141UNL      C  822   3.664   3.940   2.466 -0.6306 -0.6269 -0.0841
  141UNL    CL1  823   3.517   4.004   2.401  0.2754 -0.1790  0.2103
  141UNL    CL2  824   3.613   3.847   2.604  0.3022 -0.0099  0.0403
  141UNL      H  825   3.728   4.021   2.501 -0.3099 -0.7204 -0.4595
  142UNL     CL  826   1.993   2.804   1.266 -0.1076 -0.0857  0.3547
  142UNL      C  827   2.040   2.645   1.331  0.2691 -0.0405 -1.1108
  142UNL    CL1  828   2.081   2.535   1.206 -0.2494  0.1932 -0.2524
  142UNL    CL2  829   2.197   2.661   1.430  0.1937 -0.0477 -0.0020
  142UNL      H  830   1.963   2.604   1.397  1.4567 -0.8889 -0.2011
  143UNL     CL  831   0.197   0.385   0.523  0.0856 -0.1862  0.3283
  143UNL      C  832   0.272   0.548   0.524 -0.8989 -0.3882  0.1793
  143UNL    CL1  833   0.161   0.673   0.544 -0.0184 -0.4507  0.0007
  143UNL    CL2  834   0.389   0.551   0.664 -0.0118  0.3761 -0.0771
  143UNL      H  835   0.337   0.571   0.438 -1.3514  1.8232  0.3665
  144UNL     CL  836   1.590   2.034   0.947  0.3667  0.5077 -0.2536
  144UNL      C  837   1.501   2.123   0.817 -0.3121  0.1089 -0.8151
  144UNL    CL1  838   1.538   2.043   0.657 -0.2510 -0.1357  0.1880
  144UNL    CL2  839   1.320   2.115   0.857 -0.0078  0.2288 -0.1840
  144UNL      H  840   1.529   2.229   0.810 -0.0472  0.1288  0.3699
  145UNL     CL  841   0.067   3.259   3.939  0.1884 -0.0408 -0.1022
  145UNL      C  842   0.168   3.264   4.093  0.5206  0.2614  0.2397
  145UNL    CL1  843   0.251   3.413   4.097 -0.1017  0.2347 -0.3210
  145UNL    CL2  844   0.052   3.246   4.234  0.2977  0.3463  0.1226
  145UNL      H  845   0.232   3.175   4.093 -0.1152 -0.4286  4.7981
  146UNL     CL  846   3.084   0.181   3.359 -0.3011 -0.5287  0.2364
  146UNL      C  847   3.248   0.175   3.430  0.2059 -0.6287 -0.3751
  146UNL    CL1  848   3.250   0.314   3.541 -0.1151 -0.2306 -0.7218
  146UNL    CL2  849   3.274   0.015   3.510  0.2810 -0.0610  0.3181
  146UNL      H  850   3.318   0.180   3.346  1.3742 -1.9159  0.4679
  147UNL     CL  851   3.692   1.145   2.884 -0.0306 -0.0616 -0.0129
  147UNL      C  852   3.528   1.175   2.950  0.3577  0.2204 -0.3743
  147UNL    CL1  853   3.450   1.009   2.967 -0.1822  0.0531 -0.0215
  147UNL    CL2  854   3.542   1.252   3.116 -0.0690  0.1991 -0.2316
  147UNL      H  855   3.475   1.239   2.879  1.4717 -0.2466 -1.6740
  148UNL     CL  856   2.537   0.387   3.745  0.3619 -0.2049 -0.0510
  148UNL      C  857   2.395   0.472   3.701  1.3594  0.5956 -0.3202
  148UNL    CL1  858   2.390   0.496   3.524 -0.3667 -0.0101  0.0646
  148UNL    CL2  859   2.252   0.368   3.744  0.0339  0.1063  0.3159
  148UNL      H  860   2.382   0.571   3.745  2.0340  1.4687 -1.9726
  149UNL     CL  861   2.224   0.276   1.190 -0.2383 -0.2185 -0.1519
  149UNL      C  862   2.168   0.445   1.230 -0.1049 -0.2887  0.2475
  149UNL    CL1  863   2.276   0.570   1.146 -0.0624 -0.1826  0.0654
  149UNL    CL2  864   1.998   0.461   1.172  0.2515  0.1732  0.1726
  149UNL      H  865   2.174   0.470   1.336  1.4244  0.3589  0.0317
  150UNL     CL  866   3.771   2.806   1.169 -0.2278  0.3846  0.4176
  150UNL      C  867   3.738   2.688   1.302 -0.4577  1.1469  0.2578
  150UNL    CL1  868   3.626   2.557   1.253  0.1014 -0.3040  0.4187
  150UNL    CL2  869   3.900   2.607   1.336  0.0543  0.2988 -0.6089
  150UNL      H  870   3.689   2.738   1.387 -1.6760  1.8507 -0.8184
  151UNL     CL  871   1.346   3.518   3.249  0.1534 -0.5154  0.0939
  151UNL      C  872   1.175   3.455   3.228  0.2488  0.2952  0.8316
  151UNL    CL1  873   1.173   3.284   3.181 -0.1785  0.5322 -0.0024
  151UNL    CL2  874   1.063   3.480   3.367 -1.1627  0.0809 -0.0483
  151UNL      H  875   1.119   3.515   3.155  1.1560 -1.0176 -1.0548
  152UNL     CL  876   1.193   3.957   0.840  0.2568  0.3484 -0.1503
  152UNL      C  877   1.212   4.096   0.740 -0.0295  0.3167 -0.0941
  152UNL    CL1  878   1.081   4.210   0.774 -0.1291  0.4948 -0.0572
  152UNL    CL2  879   1.379   4.170   0.765 -0.0713  0.4755 -0.1111
  152UNL      H  880   1.213   4.063   0.635 -0.7518  1.4993 -0.5004
  153UNL     CL  881   0.668   3.616   1.655 -0.0726  0.0774  0.2483
  153UNL      C  882   0.730   3.626   1.822 -0.4165  0.4830 -0.1237
  153UNL    CL1  883   0.713   3.460   1.906  0.2701  0.1083 -0.0418
  153UNL    CL2  884   0.902   3.673   1.809 -0.0769  0.0096  0.1690
  153UNL      H  885   0.670   3.698   1.878 -0.9567  0.9388 -1.2499
  154UNL     CL  886   2.602   2.450   2.540 -0.0777  0.4832 -0.0580
  154UNL      C  887   2.634   2.633   2.526  0.2982  0.8099  0.2073
  154UNL    CL1  888   2.614   2.692   2.350 -0.3009  0.0961 -0.2504
  154UNL    CL2  889   2.516   2.709   2.615 -0.5872 -0.0551  0.2175
  154UNL      H  890   2.736   2.656   2.556  1.3916 -0.3412 -2.3133
  155UNL     CL  891   1.661   2.844   1.481  0.0386 -0.0683  0.4967
  155UNL      C  892   1.759   2.972   1.577 -0.6432 -0.5955 -0.6140
  155UNL    CL1  893   1.769   3.133   1.505  0.1757  0.0771  0.3701
  155UNL    CL2  894   1.716   2.994   1.747  0.3445  0.4424 -0.3359
  155UNL      H  895   1.860   2.932   1.593 -0.4741 -0.1865 -0.6319
  156UNL     CL  896   1.354   3.205   1.807  0.4783  0.1568 -0.1968
  156UNL      C  897   1.311   3.085   1.690  0.5509 -2.0469  0.1692
  156UNL    CL1  898   1.133   3.071   1.675 -0.4089  0.1170  0.0210
  156UNL    CL2  899   1.391   3.113   1.537  0.2065  0.2177  0.1577
  156UNL      H  900   1.336   2.989   1.735  0.0465 -2.2445  0.0361
  157UNL     CL  901   3.538   0.147   3.882  0.1894  0.1364  0.3577
  157UNL      C  902   3.510   0.321   3.854 -0.7428 -0.3917 -0.0550
  157UNL    CL1  903   3.341   0.360   3.884  0.5124  0.3262  0.2719
  157UNL    CL2  904   3.606   0.425   3.953  0.3019 -0.1823 -0.5875
  157UNL      H  905   3.541   0.340   3.751  1.5830  0.1475  0.6719
  158UNL     CL  906   0.144   2.683   2.995 -0.2159 -0.5803 -0.0134
  158UNL      C  907   0.247   2.612   2.857 -0.6308  0.5203 -0.1591
  158UNL    CL1  908   0.147   2.534   2.734  0.3137 -0.1613 -0.0393
  158UNL    CL2  909   0.359   2.735   2.776 -0.5257  0.2292 -0.1383
  158UNL      H  910   0.308   2.534   2.902 -1.8386 -0.5266 -0.2908
  159UNL     CL  911   2.391   1.144   0.022 -0.3305 -0.2076  0.0448
  159UNL      C  912   2.530   1.227   0.112  0.0644  0.0787  0.5633
  159UNL    CL1  913   2.687   1.200   0.030  0.6809  0.0492 -0.1270
  159UNL    CL2  914   2.487   1.401   0.148 -0.4449  0.5136 -0.2845
  159UNL      H  915   2.545   1.184   0.211 -0.6575 -0.4811  0.4378
  160UNL     CL  916   0.410   2.022   2.766 -0.0927 -0.1263 -0.4597
  160UNL      C  917   0.354   2.009   2.936 -0.2353  0.4079  0.1569
  160UNL    CL1  918   0.264   2.160   2.968 -0.5295  0.0499  0.2985
  160UNL    CL2  919   0.262   1.865   2.959  0.3851 -0.2045  0.0317
  160UNL      H  920   0.442   2.008   3.001  1.0268  1.0382 -1.4611
  161UNL     CL  921   4.041   2.175   2.699 -0.2048 -0.1102  0.1348
  161UNL      C  922   3.971   2.333   2.713  0.3833  0.1697  0.0429
  161UNL    CL1  923   3.986   2.437   2.558 -0.3976 -0.3056  0.2537
  161UNL    CL2  924   3.796   2.301   2.759  0.1578  0.0069 -0.0657
  161UNL      H  925   4.017   2.384   2.799  1.5448  0.8409 -0.9322
  162UNL     CL  926   3.949   0.007   3.544  0.3944 -0.5336  0.0372
  162UNL      C  927   3.821   0.004   3.668  0.0519 -0.2090  0.3061
  162UNL    CL1  928   3.698  -0.127   3.634  0.1036  0.1801 -0.0887
  162UNL    CL2  929   3.909  -0.022   3.824 -0.1716 -0.2003  0.0367
  162UNL      H  930   3.773   0.101   3.683 -1.3677 -1.0597  1.5741
  163UNL     CL  931   2.826   0.507   1.522 -0.0041 -0.1106 -0.1448
  163UNL      C  932   2.949   0.520   1.655 -0.0098  0.3654 -0.4558
  163UNL    CL1  933   2.887   0.602   1.797 -0.5581 -0.1766 -0.4479
  163UNL    CL2  934   2.994   0.350   1.695 -0.3963 -0.2916 -0.0397
  163UNL      H  935   3.029   0.576   1.605  1.5734  0.1795  1.7263
  164UNL     CL  936   1.388   3.582   2.347  0.0500 -0.0071 -0.2159
  164UNL      C  937   1.261   3.679   2.441 -0.1838 -0.0202  1.0412
  164UNL    CL1  938   1.304   3.658   2.619  0.0657 -0.1371  0.3513
  164UNL    CL2  939   1.257   3.842   2.387 -0.3542 -0.3805  0.0168
  164UNL      H  940   1.160   3.642   2.423  0.0234  0.3907 -1.2725
  165UNL     CL  941   2.612   0.408   1.004  0.0245  0.1584 -0.0755
  165UNL      C  942   2.685   0.474   0.850 -0.0931  0.4226  0.9223
  165UNL    CL1  943   2.701   0.660   0.846  0.1070  0.1315 -0.1200
  165UNL    CL2  944   2.851   0.401   0.814 -0.1936 -0.2345  0.2777
  165UNL      H  945   2.615   0.438   0.773  0.5243 -0.9421  0.9680
  166UNL     CL  946   0.603   1.274   2.309 -0.1893 -0.3134  0.0762
  166UNL      C  947   0.440   1.196   2.344 -0.1753  0.8300 -0.4426
  166UNL    CL1  948   0.401   1.106   2.195  0.2578 -0.2503  0.2098
  166UNL    CL2  949   0.443   1.091   2.497  0.2319 -0.0042 -0.3288
  166UNL      H  950   0.361   1.271   2.355  0.9535  1.8256  1.5551
  167UNL     CL  951   1.851   0.479   0.178 -0.1270 -0.1259 -0.4283
  167UNL      C  952   1.876   0.340   0.076  0.1821  0.0962  0.6079
  167UNL    CL1  953   1.968   0.385  -0.074 -0.4044  0.3694 -0.1338
  167UNL    CL2  954   1.931   0.199   0.159 -0.1513  0.0241 -0.1084
  167UNL      H  955   1.775   0.310   0.044  0.2224  1.6201 -1.1464
  168UNL     CL  956   0.399   0.408   0.985  0.2299  0.3728 -0.1398
  168UNL      C  957   0.575   0.461   0.970 -0.0561  0.1296  0.0961
  168UNL    CL1  958   0.656   0.421   0.822 -0.0686  0.3461 -0.2302
  168UNL    CL2  959   0.565   0.642   0.999  0.2176  0.3120 -0.0092
  168UNL      H  960   0.637   0.409   1.045 -0.1160 -1.7003 -1.0549
  169UNL     CL  961   2.183   0.563   2.007  0.2193 -0.1391  0.1915
  169UNL      C  962   2.113   0.724   1.963  0.2414  0.0100 -0.0146
  169UNL    CL1  963   2.218   0.772   1.821 -0.0988 -0.3186 -0.0510
  169UNL    CL2  964   1.939   0.700   1.921  0.3238 -0.6763  0.2052
  169UNL      H  965   2.122   0.784   2.054  1.7734  1.4297 -1.0451
  170UNL     CL  966   2.852   0.442   0.138  0.2028  0.3868  0.1522
  170UNL      C  967   2.990   0.319   0.142 -0.5644 -0.2046  0.5340
  170UNL    CL1  968   3.114   0.351   0.007 -0.0103 -0.2451 -0.0743
  170UNL    CL2  969   3.070   0.342   0.304 -0.2665  0.1472  0.2391
  170UNL      H  970   2.947   0.220   0.128 -0.4489 -0.1886  0.0414
  171UNL     CL  971   2.704   3.589   0.893 -0.1887 -0.0086 -0.2627
  171UNL      C  972   2.693   3.698   1.041  0.1094  0.0667 -0.2752
  171UNL    CL1  973   2.655   3.614   1.191 -0.0418  0.0966 -0.0955
  171UNL    CL2  974   2.837   3.807   1.058 -0.1667  0.1082 -0.3033
  171UNL      H  975   2.604   3.757   1.015  0.2292 -0.4356 -1.9688
  172UNL     CL  976   1.773   3.564   1.110 -0.1064 -0.1167 -0.0147
  172UNL      C  977   1.752   3.435   1.239 -0.5685 -0.2615  0.1905
  172UNL    CL1  978   1.845   3.475   1.385  0.2522 -0.2823 -0.3637
  172UNL    CL2  979   1.576   3.443   1.291 -0.2767  0.4829 -0.6167
  172UNL      H  980   1.782   3.340   1.194 -1.0541 -0.3647  0.0854
  173UNL     CL  981   1.233   1.256   2.179  0.1252 -0.4828  0.2846
  173UNL      C  982   1.081   1.338   2.210  0.1728  0.0212  0.0594
  173UNL    CL1  983   0.958   1.276   2.087 -0.0762  0.0081 -0.5119
  173UNL    CL2  984   1.014   1.297   2.370 -0.0482 -0.1472  0.2470
  173UNL      H  985   1.076   1.447   2.197 -1.7237  0.2249  1.8565
  174UNL     CL  986   3.511   2.827   1.759 -0.2258  0.0392 -0.2516
  174UNL      C  987   3.534   2.675   1.866 -0.3347 -0.6049  0.1794
  174UNL    CL1  988   3.686   2.596   1.797 -0.2172 -0.2683  0.0165
  174UNL    CL2  989   3.566   2.709   2.041 -0.0158  0.1038 -0.2979
  174UNL      H  990   3.451   2.607   1.844 -1.9905  1.3409  0.1296
  175UNL     CL  991   1.672   0.467   2.013  0.2006  0.4565  0.1497
  175UNL      C  992   1.656   0.308   2.098  0.2650 -0.1596  0.6956
  175UNL    CL1  993   1.711   0.169   1.990 -0.0137 -0.2489  0.0430
  175UNL    CL2  994   1.745   0.304   2.261  0.1327  0.2307 -0.4908
  175UNL      H  995   1.550   0.290   2.120  0.1625 -2.8029 -1.4083
  176UNL     CL  996   0.703   2.987   2.156 -0.1721 -0.0795 -0.3528
  176UNL      C  997   0.658   3.160   2.168 -0.8600  0.8070 -0.2745
  176UNL    CL1  998   0.510   3.178   2.275 -0.0946  0.4781 -0.1391
  176UNL    CL2  999   0.789   3.250   2.225 -0.0015  0.5548 -0.0179
  176UNL      H 1000   0.642   3.203   2.069  0.4761  0.6953 -0.5508
  177UNL     CL 1001   1.935   3.147   0.996 -0.1384 -0.6938 -0.0354
  177UNL      C 1002   2.033   3.064   0.861  0.1230  0.1671  0.0034
  177UNL    CL1 1003   1.915   3.017   0.730  0.2388 -0.5096  0.2887
  177UNL    CL2 1004   2.153   3.174   0.787  0.0199  0.4356 -0.4300
  177UNL      H 1005   2.083   2.975   0.901  2.3571  1.5615  0.5115
  178UNL     CL 1006   2.906   1.881   2.972  0.0428  0.4784  0.0002
  178UNL      C 1007   2.851   2.043   2.911  0.0521 -0.1784  0.0559
  178UNL    CL1 1008   2.968   2.173   2.965 -0.2785 -0.2598 -0.3643
  178UNL    CL2 1009   2.824   2.037   2.733  0.0828  0.3428 -0.0178
  178UNL      H 1010   2.757   2.068   2.961  0.1049  1.8825 -0.8110
  179UNL     CL 1011   1.943   1.725   0.740 -0.1749 -0.3032  0.1638
  179UNL      C 1012   1.824   1.599   0.791 -0.1620  0.4136  0.0408
  179UNL    CL1 1013   1.923   1.471   0.884  0.2830  0.3906 -0.5572
  179UNL    CL2 1014   1.702   1.660   0.899  0.3161  0.0737  0.2894
  179UNL      H 1015   1.769   1.553   0.708 -0.2963 -0.4911  0.6097
  180UNL     CL 1016   3.566   2.507   3.655 -0.0148 -0.3732  0.2864
  180UNL      C 1017   3.585   2.431   3.497  0.0119  0.2729 -0.3373
  180UNL    CL1 1018   3.417   2.401   3.435 -0.2136  0.4109 -0.4696
  180UNL    CL2 1019   3.663   2.556   3.389  0.0412 -0.0664  0.1618
  180UNL      H 1020   3.649   2.342   3.504 -0.0547  0.1847 -0.8132
  181UNL     CL 1021   4.012   3.256   2.755  0.1027 -0.2333  0.5546
  181UNL      C 1022   4.101   3.380   2.658 -0.3288  0.1133  0.2736
  181UNL    CL1 1023   4.099   3.341   2.486 -0.0781  0.6253 -0.2512
  181UNL    CL2 1024   4.032   3.542   2.686  0.1180 -0.0705 -0.1510
  181UNL      H 1025   4.206   3.387   2.690  0.1135  0.7606 -1.2028
  182UNL     CL 1026   3.740   1.006   2.135  0.0862 -0.3125 -0.0656
  182UNL      C 1027   3.632   1.147   2.089  0.1535 -0.1044  0.2464
  182UNL    CL1 1028   3.710   1.255   1.953  0.3235 -0.0384  0.1838
  182UNL    CL2 1029   3.468   1.066   2.037 -0.3856 -0.0431  0.0056
  182UNL      H 1030   3.627   1.196   2.187 -0.6519 -1.8120  1.0980
  183UNL     CL 1031   1.196   1.561   1.259  0.0687  0.0605 -0.0507
  183UNL      C 1032   1.296   1.708   1.218  0.8433 -0.4084 -0.3018
  183UNL    CL1 1033   1.469   1.662   1.243  0.5665  0.1882 -0.2795
  183UNL    CL2 1034   1.260   1.769   1.057 -0.0649 -0.3028 -0.4393
  183UNL      H 1035   1.275   1.784   1.294  0.6616 -0.5344 -0.2258
  184UNL     CL 1036   1.460   3.122   3.248  0.5396 -0.2252  0.2836
  184UNL      C 1037   1.593   3.105   3.125  0.0742  0.3937  0.3256
  184UNL    CL1 1038   1.537   2.986   3.000 -0.1791 -0.2363 -0.1990
  184UNL    CL2 1039   1.630   3.254   3.053 -0.2805  0.4248  0.2684
  184UNL      H 1040   1.678   3.066   3.181  0.7613  0.5463 -0.5726
  185UNL     CL 1041   3.853   1.676   2.751 -0.1652 -0.0967  0.5480
  185UNL      C 1042   3.979   1.805   2.759  0.2369  0.4911  0.3386
  185UNL    CL1 1043   4.015   1.862   2.932 -0.5316  0.0179 -0.0791
  185UNL    CL2 1044   4.125   1.731   2.690  0.0786 -0.4150 -0.1100
  185UNL      H 1045   3.942   1.895   2.709  2.4401  2.6683  2.3885
  186UNL     CL 1046   0.035   0.077   0.428  0.2270 -0.3545 -0.0073
  186UNL      C 1047   0.100  -0.060   0.525  0.0345  0.3818  0.1571
  186UNL    CL1 1048   0.003  -0.202   0.477  0.0537  0.2039 -0.0646
  186UNL    CL2 1049   0.277  -0.098   0.494 -0.1883  0.1386  0.0247
  186UNL      H 1050   0.084  -0.043   0.632 -0.2404  1.6015 -0.0582
  187UNL     CL 1051   1.141   3.082   2.056  0.0848 -0.0094  0.0570
  187UNL      C 1052   1.135   2.940   2.167  0.0989 -0.2763 -0.5830
  187UNL    CL1 1053   1.013   2.972   2.289  0.1361  0.0868  0.1478
  187UNL    CL2 1054   1.117   2.789   2.085  0.1397  0.2757  0.4066
  187UNL      H 1055   1.229   2.951   2.222 -0.0998  1.5699 -0.5264
  188UNL     CL 1056   3.370   0.890   4.037 -0.1205 -0.6931  0.3623
  188UNL      C 1057   3.449   0.752   4.110  0.1279 -0.6667  0.2265
  188UNL    CL1 1058   3.628   0.756   4.076  0.0746  0.1310  0.4055
  188UNL    CL2 1059   3.406   0.744   4.281 -0.0038 -0.0811 -0.2307
  188UNL      H 1060   3.409   0.666   4.055  1.3364 -2.1697  1.6201
  189UNL     CL 1061   3.100   4.050   2.500 -0.0374  0.3975  0.0276
  189UNL      C 1062   2.951   3.949   2.528  0.0044 -0.1355 -0.1182
  189UNL    CL1 1063   2.926   3.929   2.703 -0.0593  0.1133 -0.0720
  189UNL    CL2 1064   2.815   4.045   2.459 -0.0988  0.2845  0.2550
  189UNL      H 1065   2.953   3.856   2.471 -0.8233  0.1861 -0.6934
  190UNL     CL 1066   1.892   3.024   2.182 -0.2621 -0.3338 -0.0510
  190UNL      C 1067   1.785   3.112   2.070  0.0864 -0.5053  0.1212
  190UNL    CL1 1068   1.655   3.202   2.157  0.3862 -0.2432 -0.1073
  190UNL    CL2 1069   1.879   3.217   1.974  0.0771 -0.0599  0.0692
  190UNL      H 1070   1.747   3.030   2.009 -0.2408 -0.8129  0.7264
  191UNL     CL 1071   4.093   3.114   3.290  0.0285 -0.5946  0.3730
  191UNL      C 1072   4.034   2.947   3.347 -0.2097 -0.2203  0.1066
  191UNL    CL1 1073   3.962   2.869   3.208 -0.1398  0.4887  0.0341
  191UNL    CL2 1074   4.174   2.842   3.411 -0.0572  0.2243 -0.2036
  191UNL      H 1075   3.967   2.973   3.429 -1.4038 -0.6115 -0.7151
  192UNL     CL 1076   3.087   3.478   2.171 -0.2584  0.5994 -0.0103
  192UNL      C 1077   2.968   3.483   2.044  0.8030 -0.0914  0.4235
  192UNL    CL1 1078   3.007   3.606   1.916 -0.1368 -0.1333  0.0286
  192UNL    CL2 1079   2.931   3.317   1.964  0.0778  0.4281 -0.1631
  192UNL      H 1080   2.879   3.516   2.098  0.1557 -1.4177  0.2225
  193UNL     CL 1081   1.407   0.395   3.123  0.1345  0.3111  0.0673
  193UNL      C 1082   1.316   0.340   2.977 -0.3559 -0.4538  0.2537
  193UNL    CL1 1083   1.262   0.477   2.880 -0.7442  0.2347  0.2435
  193UNL    CL2 1084   1.416   0.237   2.885 -0.1413  0.1702 -0.0522
  193UNL      H 1085   1.223   0.293   3.008 -0.8650  0.4062  0.0654
  194UNL     CL 1086   1.081   3.342   0.828 -0.2116  0.0293  0.3371
  194UNL      C 1087   1.112   3.164   0.848  0.1765 -0.0900  0.2554
  194UNL    CL1 1088   0.971   3.067   0.906  0.1128 -0.0057  0.0736
  194UNL    CL2 1089   1.172   3.092   0.702  0.1413  0.1388  0.1504
  194UNL      H 1090   1.183   3.139   0.927  1.9373 -3.0295 -2.0490
  195UNL     CL 1091   3.215   1.951   2.674  0.2035  0.5098 -0.1405
  195UNL      C 1092   3.099   1.835   2.585  0.0876  0.1871 -0.1390
  195UNL    CL1 1093   3.139   1.818   2.405 -0.4763  0.1701  0.3384
  195UNL    CL2 1094   3.096   1.683   2.674 -0.4597  0.0243 -0.2966
  195UNL      H 1095   3.000   1.881   2.591  0.5441  0.9617  1.9348
  196UNL     CL 1096   3.486   1.872   3.926  0.0493 -0.2415 -0.5021
  196UNL      C 1097   3.516   1.863   3.752  0.0038 -0.3488 -0.3312
  196UNL    CL1 1098   3.601   2.008   3.706 -0.0027 -0.1186  0.0276
  196UNL    CL2 1099   3.605   1.713   3.712 -0.1799 -0.3046  0.2401
  196UNL      H 1100   3.424   1.853   3.695  1.2460 -1.7474 -2.2015
  197UNL     CL 1101   1.171   2.326   0.235 -0.4292  0.0039 -0.0937
  197UNL      C 1102   1.253   2.310   0.401 -0.0522  0.1334 -0.3389
  197UNL    CL1 1103   1.388   2.181   0.376  0.0522 -0.1478  0.3420
  197UNL    CL2 1104   1.333   2.464   0.458 -0.1639  0.2237 -0.1065
  197UNL      H 1105   1.173   2.282   0.470 -0.4412 -0.1407 -0.8885
  198UNL     CL 1106   2.731   0.754   1.279  0.1343  0.1649 -0.0350
  198UNL      C 1107   2.697   0.843   1.424 -0.0519 -0.0580  0.0487
  198UNL    CL1 1108   2.691   1.015   1.378  0.2734  0.1854 -0.0374
  198UNL    CL2 1109   2.542   0.788   1.501 -0.0879  0.3072  0.0101
  198UNL      H 1110   2.772   0.830   1.503 -0.5097  0.9052  0.6654
  199UNL     CL 1111   3.172   3.073   0.622 -0.1006  0.1156  0.0537
  199UNL      C 1112   3.116   3.066   0.454  0.3653 -0.6858 -0.4894
  199UNL    CL1 1113   3.255   3.020   0.350 -0.0440 -0.1744  0.3008
  199UNL    CL2 1114   2.986   2.940   0.434  0.1909  0.0724  0.2128
  199UNL      H 1115   3.080   3.163   0.419  3.3207  0.3794 -0.8926
  200UNL     CL 1116   1.004   3.066   2.685  0.4108  0.1317 -0.1735
  200UNL      C 1117   0.828   3.054   2.679  0.2273  0.0018  0.4152
  200UNL    CL1 1118   0.764   3.149   2.538  0.0941 -0.0534 -0.3486
  200UNL    CL2 1119   0.789   2.873   2.647  0.0341 -0.3779  0.4358
  200UNL      H 1120   0.783   3.088   2.772 -0.7522  2.8184 -0.9833
  201UNL     CL 1121   2.746   0.577   2.379 -0.3625  0.0720 -0.2310
  201UNL      C 1122   2.818   0.669   2.507 -0.3955 -0.2030 -0.6817
  201UNL    CL1 1123   2.816   0.565   2.645 -0.3959 -0.1022 -0.2829
  201UNL    CL2 1124   2.990   0.718   2.463 -0.3292 -0.2325 -0.1348
  201UNL      H 1125   2.758   0.760   2.522  2.7485  1.7446  1.0983
  202UNL     CL 1126   1.856   1.304   2.558 -0.1765  0.2593 -0.1731
  202UNL      C 1127   1.749   1.395   2.682  0.6939  0.0683  0.4937
  202UNL    CL1 1128   1.731   1.295   2.835  0.4271  0.5157  0.1716
  202UNL    CL2 1129   1.822   1.546   2.722 -0.1943 -0.0984 -0.0208
  202UNL      H 1130   1.652   1.404   2.631  2.0909  2.6911 -2.0445
  203UNL     CL 1131   0.086   2.482   0.955 -0.4117  0.2793 -0.1643
  203UNL      C 1132  -0.016   2.614   0.885  0.1577 -0.5764 -0.3050
  203UNL    CL1 1133  -0.189   2.590   0.930  0.1529 -0.2409  0.3590
  203UNL    CL2 1134   0.041   2.770   0.960  0.1301  0.1703 -0.0070
  203UNL      H 1135  -0.010   2.620   0.776 -3.5044 -3.2295 -0.8410
  204UNL     CL 1136   1.640   3.710   0.344  0.1893  0.3474  0.2980
  204UNL      C 1137   1.470   3.742   0.300  0.5163 -0.3080  0.2605
  204UNL    CL1 1138   1.389   3.886   0.382 -0.0454  0.3350  0.4739
  204UNL    CL2 1139   1.444   3.764   0.116  0.1329 -0.0472  0.1540
  204UNL      H 1140   1.415   3.654   0.335  1.7710 -1.1439  0.2050
  205UNL     CL 1141   1.296   3.687   2.971 -0.0025 -0.0081 -0.2016
  205UNL      C 1142   1.253   3.861   2.964 -0.0428 -0.4405  0.1815
  205UNL    CL1 1143   1.411   3.961   2.957  0.2792 -0.3895 -0.3409
  205UNL    CL2 1144   1.136   3.904   2.832  0.1773 -0.0717  0.0801
  205UNL      H 1145   1.199   3.890   3.055  0.8494  0.8690  0.3125
  206UNL     CL 1146   2.511   0.288   2.539  0.0842 -0.0571  0.2111
  206UNL      C 1147   2.459   0.116   2.589 -0.0898 -0.8486  0.0881
  206UNL    CL1 1148   2.437   0.015   2.446  0.0840  0.0373  0.2178
  206UNL    CL2 1149   2.592   0.045   2.696  0.1712 -0.3457  0.1339
  206UNL      H 1150   2.361   0.123   2.638 -0.0011  0.8544  0.0676
  207UNL     CL 1151   0.644   1.001   1.628 -0.0197  0.9053  0.0159
  207UNL      C 1152   0.807   0.973   1.552  0.2394 -0.0246  0.0992
  207UNL    CL1 1153   0.886   0.854   1.658  0.0209  0.0552 -0.0665
  207UNL    CL2 1154   0.786   0.893   1.388 -0.0221 -0.0327 -0.1571
  207UNL      H 1155   0.866   1.065   1.547 -1.4563  1.0576 -1.1489
  208UNL     CL 1156   0.585   1.073   4.094 -0.0546 -0.2737 -0.3302
  208UNL      C 1157   0.644   1.070   3.933 -0.8566  0.9039  0.6499
  208UNL    CL1 1158   0.780   1.181   3.921 -0.3167  0.5681  0.0444
  208UNL    CL2 1159   0.687   0.898   3.875  0.4307 -0.3324 -0.1285
  208UNL      H 1160   0.568   1.113   3.868  0.0443  1.9105  0.2313
  209UNL     CL 1161   0.453   3.613   3.559 -0.0288 -0.1767  0.0175
  209UNL      C 1162   0.312   3.661   3.670 -0.1767  0.1627 -0.1360
  209UNL    CL1 1163   0.372   3.632   3.838 -0.2711  0.1334  0.2537
  209UNL    CL2 1164   0.292   3.841   3.649 -0.1047 -0.1925  0.1491
  209UNL      H 1165   0.226   3.602   3.640 -0.9124  1.2496 -0.2296
  210UNL     CL 1166   0.906   0.354   1.898  0.4591  0.0228  0.0688
  210UNL      C 1167   0.909   0.415   1.724  0.1514 -0.0114 -0.0032
  210UNL    CL1 1168   0.744   0.445   1.664 -0.1747  0.2002  0.0948
  210UNL    CL2 1169   1.008   0.557   1.707 -0.2263  0.1417 -0.3243
  210UNL      H 1170   0.951   0.338   1.659  0.5261  0.4917 -0.3639
  211UNL     CL 1171   1.415   0.788   1.734  0.1760 -0.0865 -0.4020
  211UNL      C 1172   1.525   0.723   1.602  0.3591  0.3402 -0.4218
  211UNL    CL1 1173   1.696   0.778   1.632  0.0836  0.3862  0.4394
  211UNL    CL2 1174   1.513   0.542   1.603 -0.0510 -0.2977  0.2632
  211UNL      H 1175   1.494   0.755   1.502  0.4245 -1.8711 -1.1901
  212UNL     CL 1176   3.849   0.779   0.638 -0.2280  0.3106  0.1890
  212UNL      C 1177   3.725   0.678   0.563 -0.4280 -0.4991 -0.3315
  212UNL    CL1 1178   3.599   0.772   0.474 -0.2112 -0.0753  0.1784
  212UNL    CL2 1179   3.795   0.572   0.437 -0.1411 -0.2091 -0.2579
  212UNL      H 1180   3.677   0.611   0.636 -0.7392  2.3398  2.2811
  213UNL     CL 1181   2.584   0.129   3.536  0.3969 -0.1473  0.0883
  213UNL      C 1182   2.542   0.183   3.367  0.5424 -0.3104  0.0019
  213UNL    CL1 1183   2.675   0.221   3.265 -0.1986 -0.0531  0.2568
  213UNL    CL2 1184   2.450   0.053   3.286 -0.2032  0.0819 -0.0599
  213UNL      H 1185   2.477   0.272   3.362 -1.0761 -1.2671  2.2580
  214UNL     CL 1186   3.097   2.330   1.748  0.0916 -0.1219 -0.4360
  214UNL      C 1187   3.248   2.410   1.774  0.4245  0.2834 -0.5206
  214UNL    CL1 1188   3.301   2.415   1.948 -0.0132  0.1292  0.0562
  214UNL    CL2 1189   3.377   2.342   1.667 -0.2506 -0.2054 -0.0238
  214UNL      H 1190   3.246   2.513   1.736  0.8855  0.3003 -0.5101
  215UNL     CL 1191   3.893   2.260   1.734  0.0807 -0.2051 -0.1537
  215UNL      C 1192   3.792   2.173   1.606  0.3777 -0.5820 -0.0456
  215UNL    CL1 1193   3.674   2.297   1.520 -0.3432 -0.4528  0.3377
  215UNL    CL2 1194   3.904   2.086   1.489 -0.1670  0.0257  0.0598
  215UNL      H 1195   3.733   2.091   1.649  2.2003 -1.7435  0.3170
  216UNL     CL 1196   3.961   2.976   0.681  0.2194 -0.4160 -0.1492
  216UNL      C 1197   4.079   3.015   0.560 -0.1741 -0.3890  0.3071
  216UNL    CL1 1198   4.138   2.870   0.485  0.5870 -0.1468  0.4089
  216UNL    CL2 1199   4.010   3.136   0.442  0.0230 -0.0332 -0.3606
  216UNL      H 1200   4.155   3.071   0.614 -1.2733 -1.7734  3.5226
  217UNL     CL 1201   1.676   3.612   2.610  0.3169  0.1546  0.2432
  217UNL      C 1202   1.756   3.645   2.768 -0.0908  0.2859 -0.3959
  217UNL    CL1 1203   1.636   3.735   2.868 -0.2861  0.2759 -0.3078
  217UNL    CL2 1204   1.802   3.489   2.841 -0.1422  0.0734 -0.0640
  217UNL      H 1205   1.847   3.706   2.756 -0.3179  0.4620 -1.3271
  218UNL     CL 1206   2.734   3.015   0.847  0.0115 -0.1626 -0.1370
  218UNL      C 1207   2.807   3.162   0.779  0.6937 -0.1073  0.8357
  218UNL    CL1 1208   2.674   3.270   0.722 -0.2371  0.1343 -0.2331
  218UNL    CL2 1209   2.892   3.253   0.907  0.2276 -0.1287 -0.3926
  218UNL      H 1210   2.875   3.138   0.696 -0.1538 -0.7676  0.3181
  219UNL     CL 1211   0.622   3.782   0.052 -0.2713  0.2324 -0.2116
  219UNL      C 1212   0.508   3.746   0.189 -0.2700 -0.0940  0.6765
  219UNL    CL1 1213   0.571   3.607   0.282 -0.2838  0.4220 -0.4366
  219UNL    CL2 1214   0.474   3.874   0.297 -0.2323 -0.9378  0.0828
  219UNL      H 1215   0.414   3.723   0.138 -0.0280  0.4545 -0.0342
  220UNL     CL 1216   0.745   2.003   2.021 -0.4334 -0.0820  0.2796
  220UNL      C 1217   0.878   2.089   1.925 -0.3399 -0.0651 -0.6247
  220UNL    CL1 1218   0.938   1.988   1.794 -0.1118 -0.0751 -0.1489
  220UNL    CL2 1219   0.822   2.238   1.861  0.0732 -0.1912 -0.3245
  220UNL      H 1220   0.960   2.112   1.994 -0.0972  0.3668 -1.0566
  221UNL     CL 1221   0.218   0.273   3.856 -0.4791  0.3436  0.2023
  221UNL      C 1222   0.261   0.108   3.785  0.2833 -0.0809  0.4203
  221UNL    CL1 1223   0.118  -0.002   3.811  0.2569 -0.0257 -0.3796
  221UNL    CL2 1224   0.296   0.137   3.608 -0.2052  0.0835  0.0104
  221UNL      H 1225   0.350   0.075   3.839 -1.3768 -1.3333  2.5606
  222UNL     CL 1226   0.339   0.691   2.843  0.0300  0.3319 -0.7100
  222UNL      C 1227   0.347   0.805   2.709 -0.3359 -0.1927  1.0704
  222UNL    CL1 1228   0.427   0.727   2.568 -0.3624 -0.2017 -0.1959
  222UNL    CL2 1229   0.189   0.863   2.664  0.1652 -0.2162  0.4361
  222UNL      H 1230   0.406   0.894   2.731 -2.0340  1.3179 -0.1870
  223UNL     CL 1231   1.882   3.207   3.507 -0.0780  0.0357 -0.2003
  223UNL      C 1232   1.968   3.312   3.390 -0.1391  0.2839 -0.3607
  223UNL    CL1 1233   2.147   3.331   3.442  0.2296  0.4402  0.0270
  223UNL    CL2 1234   1.955   3.246   3.225 -0.1197  0.2165  0.0500
  223UNL      H 1235   1.925   3.412   3.392  0.6712  0.6379  0.6472
  224UNL     CL 1236   0.740   3.649   1.143 -0.0990 -0.0429  0.1262
  224UNL      C 1237   0.824   3.546   1.025  0.0315  0.4127 -0.3174
  224UNL    CL1 1238   0.720   3.458   0.915  0.2416 -0.0316 -0.4087
  224UNL    CL2 1239   0.929   3.652   0.923 -0.1062  0.1040 -0.1845
  224UNL      H 1240   0.895   3.483   1.077 -0.0011  1.1503  0.6411
  225UNL     CL 1241   0.052   1.794   0.895  0.3438  0.1158 -0.3113
  225UNL      C 1242   0.183   1.910   0.923 -0.0999  0.1253  0.2510
  225UNL    CL1 1243   0.158   2.044   0.810  0.3022 -0.2445 -0.0194
  225UNL    CL2 1244   0.179   1.985   1.087  0.4051  0.0808 -0.0456
  225UNL      H 1245   0.276   1.856   0.902 -0.4071  0.0670 -1.0119
  226UNL     CL 1246   3.998   3.386   0.679  0.1080 -0.1159 -0.2043
  226UNL      C 1247   3.850   3.487   0.669 -0.2960 -0.3799  0.2267
  226UNL    CL1 1248   3.716   3.418   0.763 -0.0138  0.3000  0.1482
  226UNL    CL2 1249   3.885   3.642   0.738 -0.0849  0.0390  0.0246
  226UNL      H 1250   3.823   3.508   0.565  0.1678  1.2587  0.4085
  227UNL     CL 1251   1.196   0.941   2.458  0.1927  0.2904  0.0233
  227UNL      C 1252   1.290   0.826   2.553 -0.0498  0.4982 -0.2647
  227UNL    CL1 1253   1.431   0.753   2.467 -0.0753 -0.0382  0.0486
  227UNL    CL2 1254   1.361   0.930   2.685 -0.2568 -0.1539  0.0623
  227UNL      H 1255   1.228   0.747   2.596  0.6871  0.7447  1.3567
  228UNL     CL 1256   0.457   1.720   1.178  0.0900 -0.4421 -0.0222
  228UNL      C 1257   0.417   1.646   1.335  0.2620 -0.1395 -0.1650
  228UNL    CL1 1258   0.311   1.499   1.305 -0.2976  0.2035 -0.0045
  228UNL    CL2 1259   0.567   1.591   1.414 -0.0165  0.1543 -0.2951
  228UNL      H 1260   0.367   1.719   1.399  2.7749  0.4257  1.3329
  229UNL     CL 1261   1.427   0.046   1.137 -0.1500 -0.2695  0.4081
  229UNL      C 1262   1.302   0.159   1.198  0.0099 -0.1658  0.3858
  229UNL    CL1 1263   1.363   0.274   1.326  0.2269 -0.2944 -0.0650
  229UNL    CL2 1264   1.235   0.249   1.058 -0.2122 -0.1505  0.4288
  229UNL      H 1265   1.227   0.097   1.248 -1.3768  0.9545 -0.2361
  230UNL     CL 1266   3.694   1.747   1.799  0.2430  0.0612  0.1124
  230UNL      C 1267   3.665   1.604   1.695  0.3867 -0.6628 -0.4256
  230UNL    CL1 1268   3.518   1.624   1.589 -0.4190  0.0490 -0.0491
  230UNL    CL2 1269   3.807   1.566   1.594 -0.2689  0.0285 -0.1696
  230UNL      H 1270   3.653   1.517   1.761  0.0009 -0.0208  0.3630
  231UNL     CL 1271   0.897   1.901   3.135  0.5923 -0.0451  0.2614
  231UNL      C 1272   0.843   2.078   3.147 -0.1143  0.5705  0.3034
  231UNL    CL1 1273   0.666   2.095   3.108  0.2725 -0.0983 -0.1929
  231UNL    CL2 1274   0.873   2.141   3.309  0.2900 -0.5443 -0.0727
  231UNL      H 1275   0.903   2.129   3.072 -0.1394  0.7087  0.3777
  232UNL     CL 1276   0.256   2.676   1.911  0.1025  0.0744  0.2099
  232UNL      C 1277   0.138   2.555   1.864  0.6804  0.4303  0.1364
  232UNL    CL1 1278   0.082   2.466   2.011  0.5126  0.1912  0.0782
  232UNL    CL2 1279  -0.017   2.631   1.797  0.4209  0.0605 -0.2358
  232UNL      H 1280   0.177   2.491   1.785  2.8457  0.1908  1.3212
  233UNL     CL 1281   0.171   2.504   3.816  0.3235  0.0398 -0.5245
  233UNL      C 1282   0.322   2.455   3.729 -0.3068  0.6994  0.0716
  233UNL    CL1 1283   0.292   2.347   3.591  0.4963 -0.3097  0.0137
  233UNL    CL2 1284   0.414   2.601   3.681  0.7469  0.2227  0.3088
  233UNL      H 1285   0.384   2.399   3.801  0.0564 -0.2688 -0.9603
  234UNL     CL 1286   0.377   3.568   2.126 -0.1736 -0.0378 -0.0874
  234UNL      C 1287   0.257   3.665   2.223  0.0704 -0.1247  0.5067
  234UNL    CL1 1288   0.119   3.565   2.279  0.0481 -0.0503 -0.1971
  234UNL    CL2 1289   0.341   3.740   2.364  0.4356 -0.1512  0.1904
  234UNL      H 1290   0.214   3.747   2.163  0.3505 -0.0448  0.4167
  235UNL     CL 1291   0.597   1.730   2.980 -0.0080  0.4356 -0.3211
  235UNL      C 1292   0.577   1.637   2.823  0.1013 -0.5715 -0.6571
  235UNL    CL1 1293   0.405   1.587   2.801  0.0629 -0.1926 -0.3981
  235UNL    CL2 1294   0.638   1.724   2.679  0.0963  0.1470 -0.2322
  235UNL      H 1295   0.629   1.541   2.836 -2.5448 -2.1839 -1.2006
  236UNL     CL 1296   0.880   2.612   1.394 -0.2551 -0.1875 -0.1846
  236UNL      C 1297   0.905   2.791   1.372 -0.1982 -0.1572 -0.2768
  236UNL    CL1 1298   0.789   2.846   1.245 -0.0486  0.3282  0.2020
  236UNL    CL2 1299   0.878   2.889   1.513 -0.2889  0.1740 -0.0185
  236UNL      H 1300   1.002   2.813   1.327 -0.4673 -1.0258 -1.3386
  237UNL     CL 1301   2.781   2.126   0.045  0.0234  0.3474  0.0022
  237UNL      C 1302   2.916   2.026  -0.002 -0.3720  0.0055 -0.1921
  237UNL    CL1 1303   2.847   1.899  -0.096  0.4542  0.0734 -0.0898
  237UNL    CL2 1304   3.028   2.131  -0.102 -0.0937 -0.2173 -0.6419
  237UNL      H 1305   2.968   1.991   0.088 -1.1311 -1.8004 -0.4303
  238UNL     CL 1306   3.886   2.296   3.626  0.0034 -0.0693  0.3510
  238UNL      C 1307   3.975   2.434   3.697 -0.7286 -0.2011 -0.3464
  238UNL    CL1 1308   3.950   2.583   3.608 -0.0153 -0.2041 -0.0548
  238UNL    CL2 1309   3.922   2.448   3.870  0.1942  0.0508 -0.3830
  238UNL      H 1310   4.082   2.411   3.685 -0.4734  0.9192 -0.3923
  239UNL     CL 1311   1.581   1.325   0.263  0.3988 -0.0675  0.1305
  239UNL      C 1312   1.448   1.213   0.306  0.5038 -0.2726 -0.5740
  239UNL    CL1 1313   1.508   1.087   0.422  0.2540 -0.5678  0.1214
  239UNL    CL2 1314   1.315   1.303   0.392  0.1439 -0.1840  0.1991
  239UNL      H 1315   1.406   1.162   0.218  0.0810 -1.8821  0.5210
  240UNL     CL 1316   3.987   1.076   1.542 -0.2100 -0.4761  0.2838
  240UNL      C 1317   4.010   1.106   1.369  0.1757 -0.4115  0.6745
  240UNL    CL1 1318   3.882   1.034   1.269 -0.3819 -0.2613 -0.2295
  240UNL    CL2 1319   3.994   1.280   1.334 -0.0922  0.3864 -0.2901
  240UNL      H 1320   4.106   1.062   1.340 -0.3731 -0.8636 -0.4995
  241UNL     CL 1321   3.337   0.679   2.265 -0.0086  0.0067 -0.3085
  241UNL      C 1322   3.434   0.594   2.144 -0.1267  0.1313  0.4279
  241UNL    CL1 1323   3.478   0.710   2.023 -0.3772 -0.1900 -0.1554
  241UNL    CL2 1324   3.582   0.526   2.222 -0.3861 -0.1649  0.1758
  241UNL      H 1325   3.378   0.514   2.095 -0.1938  1.4007 -1.6961
  242UNL     CL 1326   2.726   0.035   1.578 -0.2546 -0.2068 -0.1255
  242UNL      C 1327   2.745   0.161   1.443 -0.6535 -0.7775  0.6038
  242UNL    CL1 1328   2.748   0.074   1.287 -0.5373 -0.2257  0.3357
  242UNL    CL2 1329   2.606   0.274   1.432 -0.3026  0.0236  0.0078
  242UNL      H 1330   2.842   0.210   1.451 -0.1199 -1.5964 -0.5103
  243UNL     CL 1331   2.003   3.768   3.793 -0.0694 -0.2611  0.2158
  243UNL      C 1332   1.979   3.609   3.872 -0.0946  0.2083 -0.1410
  243UNL    CL1 1333   1.824   3.608   3.971 -0.6660 -0.3266 -0.1490
  243UNL    CL2 1334   1.975   3.477   3.750  0.0972  0.1341  0.6097
  243UNL      H 1335   2.061   3.587   3.941  1.4055 -1.2773 -2.2412
  244UNL     CL 1336   0.618   3.721   0.669  0.1633 -0.4604 -0.0949
  244UNL      C 1337   0.515   3.869   0.704  0.3886 -0.0627 -0.1150
  244UNL    CL1 1338   0.460   3.868   0.867  0.2040  0.1223 -0.1211
  244UNL    CL2 1339   0.592   4.028   0.671 -0.5982 -0.2377  0.1691
  244UNL      H 1340   0.425   3.852   0.644  0.5184 -0.7492 -0.1126
  245UNL     CL 1341   3.941   1.941   2.365 -0.2547  0.1171  0.1992
  245UNL      C 1342   3.981   1.877   2.197  0.0417  0.1266  0.1459
  245UNL    CL1 1343   3.920   1.988   2.072  0.0359 -0.5023 -0.5455
  245UNL    CL2 1344   4.165   1.861   2.191  0.0492  0.1752 -0.0136
  245UNL      H 1345   3.927   1.786   2.168 -1.3475  0.9790 -0.0066
  246UNL     CL 1346   2.727   1.543   3.946  0.1355  0.3274  0.0186
  246UNL      C 1347   2.584   1.477   3.851  0.5049  0.4998 -0.2902
  246UNL    CL1 1348   2.432   1.580   3.872 -0.3349  0.9627  0.2429
  246UNL    CL2 1349   2.620   1.487   3.678 -0.2492  0.1123 -0.0461
  246UNL      H 1350   2.568   1.375   3.888 -0.0278  1.1213  1.3004
  247UNL     CL 1351   2.812   3.991   0.672  0.2356 -0.4924 -0.1381
  247UNL      C 1352   2.728   4.096   0.796 -0.2495  0.5042  0.0651
  247UNL    CL1 1353   2.579   4.005   0.846  0.0330  0.0757 -0.2124
  247UNL    CL2 1354   2.834   4.117   0.928  0.1436 -0.5015  0.0804
  247UNL      H 1355   2.694   4.191   0.754 -2.1992  0.4482  1.3928
  248UNL     CL 1356   0.262   0.448   1.543 -0.3773 -0.4796  0.4271
  248UNL      C 1357   0.396   0.468   1.427 -0.0932 -0.0498  0.6142
  248UNL    CL1 1358   0.404   0.321   1.316  0.1044  0.0645 -0.1221
  248UNL    CL2 1359   0.377   0.619   1.327 -0.0176  0.0705 -0.0144
  248UNL      H 1360   0.493   0.485   1.475  0.6066 -1.1882 -0.3476
  249UNL     CL 1361   2.615   3.916   3.558  0.3253 -0.3732  0.0868
  249UNL      C 1362   2.458   3.837   3.514 -0.4381  0.1760  0.0308
  249UNL    CL1 1363   2.442   3.667   3.587 -0.2938  0.1642 -0.0350
  249UNL    CL2 1364   2.326   3.951   3.559  0.0964 -0.0001 -0.1991
  249UNL      H 1365   2.453   3.827   3.405  2.5166  0.4902 -0.1960
  250UNL     CL 1366   3.633   0.924   0.968  0.5545 -0.3394  0.5234
  250UNL      C 1367   3.474   0.913   0.886  0.8832  0.0769 -0.3154
  250UNL    CL1 1368   3.340   0.971   1.003  0.0784 -0.4777  0.1712
  250UNL    CL2 1369   3.489   1.025   0.753 -0.0333  0.1624 -0.1859
  250UNL      H 1370   3.451   0.811   0.853  0.9950 -0.2817  0.6813
  251UNL     CL 1371   4.080   1.403   1.812  0.2870 -0.0665 -0.0301
  251UNL      C 1372   4.106   1.412   1.984  0.4979 -0.2699 -0.1566
  251UNL    CL1 1373   4.008   1.549   2.064 -0.1543 -0.3406  0.2621
  251UNL    CL2 1374   4.079   1.254   2.065 -0.0467 -0.2103  0.2372
  251UNL      H 1375   4.213   1.438   1.984  0.4168  0.1208 -1.4631
  252UNL     CL 1376   2.483   0.610   0.174  0.1200 -0.6910  0.3837
  252UNL      C 1377   2.495   0.573  -0.007 -0.5978  0.1470  0.7382
  252UNL    CL1 1378   2.333   0.582  -0.084 -0.1540 -0.1253 -0.3631
  252UNL    CL2 1379   2.607   0.695  -0.083 -0.0441 -0.2714  0.1499
  252UNL      H 1380   2.545   0.477  -0.024  0.6881  0.2655  3.3541
  253UNL     CL 1381   4.084   1.267   0.520 -0.0154  0.4704  0.2634
  253UNL      C 1382   4.103   1.296   0.692  0.5241  0.1987  0.0558
  253UNL    CL1 1383   4.205   1.161   0.758  0.2574  0.1497 -0.1075
  253UNL    CL2 1384   4.175   1.463   0.742 -0.2552 -0.2960  0.0972
  253UNL      H 1385   3.999   1.292   0.726 -0.1930  1.9012 -1.7525
  254UNL     CL 1386   2.873   2.437   3.238 -0.0469 -0.4380  0.3879
  254UNL      C 1387   3.052   2.479   3.250  0.0888  0.5752 -0.4588
  254UNL    CL1 1388   3.115   2.524   3.093 -0.0637  0.2296  0.0026
  254UNL    CL2 1389   3.067   2.619   3.357  0.2326  0.3762 -0.4693
  254UNL      H 1390   3.103   2.392   3.294 -0.0601  0.9863  0.5371
  255UNL     CL 1391   1.712   1.108   0.919  0.2643  0.0982 -0.1094
  255UNL      C 1392   1.804   1.111   0.772  0.6132  0.1895  0.1452
  255UNL    CL1 1393   1.823   0.936   0.720  0.2185 -0.3167 -0.3889
  255UNL    CL2 1394   1.725   1.214   0.644 -0.3650  0.1470 -0.2503
  255UNL      H 1395   1.899   1.158   0.798  0.0248  0.2433  2.4247
  256UNL     CL 1396   0.444   0.356   2.305 -0.3556  0.3331  0.4111
  256UNL      C 1397   0.610   0.423   2.291 -0.2448  0.0250 -0.5527
  256UNL    CL1 1398   0.717   0.326   2.394  0.1796 -0.0109  0.4022
  256UNL    CL2 1399   0.650   0.409   2.119 -0.0861  0.0853  0.0003
  256UNL      H 1400   0.617   0.528   2.321  0.4140  0.0447 -0.7600
  257UNL     CL 1401   2.066   3.453   1.811 -0.1969 -0.2407 -0.0979
  257UNL      C 1402   2.155   3.558   1.693 -0.0655 -0.0023  0.0796
  257UNL    CL1 1403   2.319   3.594   1.762  0.2359  0.2407 -0.1339
  257UNL    CL2 1404   2.173   3.455   1.542  0.3278 -0.0615  0.1409
  257UNL      H 1405   2.093   3.647   1.681 -0.7323 -0.4501  0.0942
  258UNL     CL 1406   0.898   3.701   2.431 -0.0699  0.2864  0.1305
  258UNL      C 1407   0.846   3.605   2.287  0.3968  0.5637  0.4926
  258UNL    CL1 1408   0.733   3.692   2.179  0.1252 -0.2080 -0.0575
  258UNL    CL2 1409   0.990   3.556   2.186 -0.4365 -0.2924 -0.2102
  258UNL      H 1410   0.796   3.511   2.310  1.6813 -0.3621 -0.3570
  259UNL     CL 1411   2.889   2.883   2.329 -0.5380  0.3055  0.2372
  259UNL      C 1412   2.778   3.006   2.281 -0.4007  0.1878  0.1504
  259UNL    CL1 1413   2.837   3.160   2.343  0.1805  0.1333  0.1022
  259UNL    CL2 1414   2.777   3.003   2.108  0.5306  0.2224  0.0052
  259UNL      H 1415   2.676   2.980   2.313 -0.6970 -1.2062 -1.7051
  260UNL     CL 1416   2.340   3.351   2.115  0.2171 -0.2454 -0.3801
  260UNL      C 1417   2.454   3.374   2.232 -0.8527  0.0399  0.3168
  260UNL    CL1 1418   2.514   3.212   2.301  0.2394  0.2498  0.4119
  260UNL    CL2 1419   2.585   3.463   2.154 -0.3863 -0.2245 -0.0750
  260UNL      H 1420   2.410   3.435   2.311 -1.6526 -2.9656  2.3758
  261UNL     CL 1421   3.695   0.433   1.535 -0.4726 -0.2842  0.0009
  261UNL      C 1422   3.738   0.254   1.527  0.6117  0.3857 -0.2440
  261UNL    CL1 1423   3.581   0.157   1.483 -0.2435  0.0909  0.2212
  261UNL    CL2 1424   3.860   0.226   1.398  0.1346  0.0362 -0.3126
  261UNL      H 1425   3.776   0.233   1.627  2.2244 -0.7675 -1.0411
  262UNL     CL 1426   2.814   3.444   2.712  0.4118  0.3152  0.4446
  262UNL      C 1427   2.861   3.482   2.537  0.6493  0.6105  0.4305
  262UNL    CL1 1428   2.722   3.576   2.453  0.4096 -0.2439  0.0788
  262UNL    CL2 1429   3.012   3.578   2.540 -0.3131 -0.6034 -0.1951
  262UNL      H 1430   2.885   3.390   2.483 -0.1948 -0.5634  1.9514
  263UNL     CL 1431   3.601   3.903   0.264 -0.0722  0.4883  0.1763
  263UNL      C 1432   3.779   3.913   0.287  0.4760  0.1930 -0.3666
  263UNL    CL1 1433   3.855   3.746   0.302  0.1717 -0.0499 -0.3457
  263UNL    CL2 1434   3.853   4.012   0.157  0.2530  0.3470  0.1498
  263UNL      H 1435   3.792   3.967   0.381 -0.5531 -1.4433  0.7589
  264UNL     CL 1436   1.022   2.620   3.288 -0.3656 -0.1085 -0.2421
  264UNL      C 1437   1.126   2.550   3.167  0.2510  0.2883 -0.2441
  264UNL    CL1 1438   1.294   2.603   3.175 -0.0611  0.2881 -0.0811
  264UNL    CL2 1439   1.115   2.376   3.180  0.2764 -0.0650  0.2868
  264UNL      H 1440   1.101   2.578   3.064 -3.0361  0.9967  0.6410
  265UNL     CL 1441   1.819   1.210   2.035  0.0791 -0.0335 -0.0800
  265UNL      C 1442   1.707   1.275   1.902  0.3020  0.0847 -0.8973
  265UNL    CL1 1443   1.595   1.143   1.833  0.0188 -0.3558 -0.4266
  265UNL    CL2 1444   1.603   1.406   1.967 -0.0252  0.2698 -0.4035
  265UNL      H 1445   1.771   1.320   1.826  0.3906 -0.9967 -1.4862
  266UNL     CL 1446   1.781   0.136   0.748 -0.1031  0.1860  0.0214
  266UNL      C 1447   1.910   0.227   0.847 -0.2354  0.4346  0.2829
  266UNL    CL1 1448   2.076   0.152   0.816  0.1248  0.0622 -0.1803
  266UNL    CL2 1449   1.924   0.401   0.814 -0.2723  0.1489  0.0605
  266UNL      H 1450   1.877   0.218   0.951  0.4654 -2.0514  0.3671
  267UNL     CL 1451   0.226   1.646   0.459 -0.1432 -0.3048 -0.3874
  267UNL      C 1452   0.331   1.789   0.439  0.3061  0.0887 -0.1938
  267UNL    CL1 1453   0.257   1.912   0.322 -0.1696 -0.2014 -0.1032
  267UNL    CL2 1454   0.371   1.861   0.599 -0.4988 -0.2917 -0.1053
  267UNL      H 1455   0.422   1.760   0.386  0.6427  2.8872 -1.3007
  268UNL     CL 1456   0.629   1.513   3.568 -0.1087 -0.6401  0.2119
  268UNL      C 1457   0.777   1.402   3.574 -0.1393 -0.3220 -0.1817
  268UNL    CL1 1458   0.832   1.379   3.402  0.0199 -0.1961 -0.0668
  268UNL    CL2 1459   0.896   1.490   3.677  0.1924 -0.3606 -0.1419
  268UNL      H 1460   0.742   1.307   3.618 -0.1395 -0.3080 -0.1517
  269UNL     CL 1461   0.603   2.727   0.885 -0.2641 -0.1317 -0.2825
  269UNL      C 1462   0.779   2.739   0.891  0.2707 -0.3175 -0.1418
  269UNL    CL1 1463   0.847   2.575   0.925 -0.2760 -0.1130  0.2410
  269UNL    CL2 1464   0.838   2.818   0.737 -0.2096 -0.3398  0.0717
  269UNL      H 1465   0.793   2.807   0.976  0.6630 -0.5914  0.0154
  270UNL     CL 1466   2.357   3.405   0.950 -0.4660  0.0336 -0.4148
  270UNL      C 1467   2.449   3.301   1.059 -0.0510  0.7892 -0.0771
  270UNL    CL1 1468   2.373   3.300   1.225 -0.0229 -0.2634  0.4567
  270UNL    CL2 1469   2.468   3.138   0.992 -0.1023 -0.0254  0.0337
  270UNL      H 1470   2.548   3.345   1.068  0.7192 -0.4511 -1.9254
  271UNL     CL 1471   2.993   4.035   0.175  0.2484  0.0359  0.1954
  271UNL      C 1472   2.887   4.010   0.318 -0.1610 -0.1563  0.0477
  271UNL    CL1 1473   2.830   4.167   0.383  0.0785  0.3431  0.6441
  271UNL    CL2 1474   2.747   3.926   0.257  0.1308 -0.2326 -0.2495
  271UNL      H 1475   2.933   3.951   0.398  3.3086  2.4501  0.2139
  272UNL     CL 1476   3.895   1.000   0.306 -0.0100  0.0272 -0.2509
  272UNL      C 1477   3.958   0.880   0.190 -0.4507  0.2496 -0.0642
  272UNL    CL1 1478   4.028   0.955   0.047  0.1185 -0.2615 -0.2253
  272UNL    CL2 1479   4.092   0.780   0.268  0.3640 -0.2303 -0.3186
  272UNL      H 1480   3.872   0.821   0.158 -0.8274 -0.1190  1.5378
  273UNL     CL 1481   1.022   2.938   0.088 -0.2360 -0.0868  0.1855
  273UNL      C 1482   1.149   3.011  -0.015  0.9077  0.8980  0.6314
  273UNL    CL1 1483   1.084   3.023  -0.181 -0.2374 -0.2053 -0.0942
  273UNL    CL2 1484   1.183   3.177   0.035 -0.1706 -0.1099  0.1594
  273UNL      H 1485   1.238   2.947  -0.015  0.4190  0.1981 -0.0461
  274UNL     CL 1486   3.019   1.107   4.004 -0.0395 -0.0514  0.4158
  274UNL      C 1487   2.976   1.099   3.824  0.0281  0.3166 -0.6532
  274UNL    CL1 1488   2.802   1.117   3.810  0.4249 -0.2847 -0.1121
  274UNL    CL2 1489   3.068   1.233   3.740  0.1394  0.1505 -0.3160
  274UNL      H 1490   3.007   1.005   3.777 -1.6862 -0.3011 -0.6142
  275UNL     CL 1491   3.279   3.332   1.890  0.1639 -0.1850  0.2119
  275UNL      C 1492   3.355   3.185   1.839 -0.0678 -0.0025  0.2081
  275UNL    CL1 1493   3.421   3.099   1.988 -0.3140 -0.1891 -0.2602
  275UNL    CL2 1494   3.228   3.073   1.763  0.4911 -0.2972 -0.0755
  275UNL      H 1495   3.432   3.214   1.766  0.2073  0.5608  0.7080
  276UNL     CL 1496   2.134   0.857   1.344 -0.1769 -0.0453  0.1395
  276UNL      C 1497   2.203   1.008   1.378 -0.2851 -0.0777  0.4484
  276UNL    CL1 1498   2.132   1.129   1.273 -0.0183 -0.1948 -0.2473
  276UNL    CL2 1499   2.169   1.041   1.547  0.0100 -0.1233 -0.2413
  276UNL      H 1500   2.310   0.990   1.372 -0.1344  0.7914  0.4483
  277UNL     CL 1501   2.800   1.536   0.659 -0.0518 -0.2128  0.6819
  277UNL      C 1502   2.868   1.682   0.724 -0.1052  0.0794 -0.5243
  277UNL    CL1 1503   2.927   1.768   0.579 -0.0701  0.0084  0.3160
  277UNL    CL2 1504   2.739   1.775   0.800  0.1127  0.4249 -0.1872
  277UNL      H 1505   2.951   1.654   0.790  0.3701 -1.0823 -1.5645
  278UNL     CL 1506   4.016   1.391   3.054 -0.1022  0.0828  0.0676
  278UNL      C 1507   4.122   1.254   3.107 -0.8265  0.3105  0.0373
  278UNL    CL1 1508   4.288   1.312   3.106 -0.2347  0.2275 -0.3927
  278UNL    CL2 1509   4.092   1.201   3.280 -0.1992  0.0159 -0.0933
  278UNL      H 1510   4.109   1.172   3.036 -1.6869  1.5350 -1.2701
  279UNL     CL 1511   2.166   2.909   3.181 -0.0757 -0.4124  0.2093
  279UNL      C 1512   2.114   2.934   3.003  0.7017  0.7201  0.5711
  279UNL    CL1 1513   2.145   2.784   2.903 -0.4835  0.8117 -0.2072
  279UNL    CL2 1514   1.939   2.985   2.994  0.3930 -0.1086 -0.4256
  279UNL      H 1515   2.162   3.020   2.954  0.9176 -0.4184 -1.3218
  280UNL     CL 1516   0.787   1.452   0.298 -0.2764 -0.0883  0.1975
  280UNL      C 1517   0.725   1.424   0.464  0.0582  0.2988  0.8514
  280UNL    CL1 1518   0.855   1.360   0.558  0.0429 -0.0525  0.4123
  280UNL    CL2 1519   0.661   1.589   0.517  0.0000 -0.0370  0.0948
  280UNL      H 1520   0.645   1.351   0.478  1.6829 -1.7248  0.2367
  281UNL     CL 1521   1.112   2.139   2.740  0.2205  0.2941  0.0753
  281UNL      C 1522   1.071   1.979   2.811 -0.1060 -0.1174  0.6034
  281UNL    CL1 1523   0.902   1.955   2.817 -0.2368 -0.0543  0.0806
  281UNL    CL2 1524   1.144   1.849   2.705 -0.3231  0.2977 -0.4034
  281UNL      H 1525   1.110   1.979   2.914  2.8097  2.4293 -0.3455
  282UNL     CL 1526   2.066   3.448   0.472  0.1766  0.1692  0.6528
  282UNL      C 1527   1.941   3.373   0.573  0.7291 -0.0996 -0.0039
  282UNL    CL1 1528   1.928   3.444   0.742 -0.1113  0.4071  0.4167
  282UNL    CL2 1529   1.783   3.396   0.484  0.2152  0.0617 -0.0519
  282UNL      H 1530   1.968   3.267   0.569 -0.7658 -0.5509  0.9896
  283UNL     CL 1531   3.338   0.652   1.640 -0.4469  0.3618 -0.0408
  283UNL      C 1532   3.295   0.803   1.721  0.5640 -0.1300  0.0838
  283UNL    CL1 1533   3.188   0.899   1.608  0.0769 -0.2641 -0.1210
  283UNL    CL2 1534   3.192   0.758   1.862  0.0524 -0.4452 -0.2552
  283UNL      H 1535   3.381   0.859   1.759  0.3817 -0.5273  1.1261
  284UNL     CL 1536   2.777   3.594   3.639  0.0684 -0.0060  0.5582
  284UNL      C 1537   2.874   3.720   3.724  0.2209 -0.0746  0.0608
  284UNL    CL1 1538   2.779   3.764   3.864  0.2412 -0.1843  0.1502
  284UNL    CL2 1539   3.034   3.653   3.772  0.0670  0.2270  0.0911
  284UNL      H 1540   2.892   3.809   3.663  0.5737  0.7051  1.2698
  285UNL     CL 1541   2.312   0.614   0.774  0.3047 -0.0008 -0.2067
  285UNL      C 1542   2.252   0.760   0.863  0.0151 -0.5321  0.8121
  285UNL    CL1 1543   2.382   0.822   0.955 -0.0496 -0.2591 -0.0846
  285UNL    CL2 1544   2.197   0.880   0.752  0.3413  0.2665  0.2907
  285UNL      H 1545   2.171   0.745   0.935 -1.0860  3.3816  0.6129
  286UNL     CL 1546   2.971   1.335   1.396  0.5073  0.4768  0.0449
  286UNL      C 1547   2.853   1.345   1.533  0.9681 -0.2497 -0.1740
  286UNL    CL1 1548   2.695   1.369   1.461  0.2184 -0.0346 -0.0005
  286UNL    CL2 1549   2.863   1.196   1.621  0.1592  0.2837 -0.2919
  286UNL      H 1550   2.875   1.430   1.598 -0.5886 -0.5928  0.8520
  287UNL     CL 1551   3.503   1.741   0.990 -0.3079  0.2750 -0.0673
  287UNL      C 1552   3.393   1.812   0.871  0.6077 -0.1498 -0.2609
  287UNL    CL1 1553   3.407   1.982   0.853 -0.0700 -0.0134 -0.0695
  287UNL    CL2 1554   3.418   1.726   0.716 -0.0563  0.2832  0.0412
  287UNL      H 1555   3.289   1.803   0.904  0.4994  0.6347 -0.3792
  288UNL     CL 1556   3.797   2.077   0.014  0.1585 -0.4646 -1.0148
  288UNL      C 1557   3.919   2.127   0.136  0.4972 -0.0895  0.0926
  288UNL    CL1 1558   3.995   1.984   0.206 -0.3129 -0.0649 -0.0512
  288UNL    CL2 1559   4.066   2.225   0.075  0.2900 -0.2675  0.2696
  288UNL      H 1560   3.867   2.186   0.212  1.1045  1.7069 -0.8474
  289UNL     CL 1561   1.127   1.150   0.759 -0.4483  0.2208 -0.1329
  289UNL      C 1562   1.186   0.978   0.754 -0.5940 -0.3135  0.5547
  289UNL    CL1 1563   1.216   0.923   0.585 -0.2609 -0.1462 -0.1784
  289UNL    CL2 1564   1.324   0.978   0.864  0.0507  0.0577  0.3550
  289UNL      H 1565   1.096   0.920   0.774 -1.3200  0.4796 -0.2937
  290UNL     CL 1566   1.728   2.610   3.435  0.2972  0.1681  0.3250
  290UNL      C 1567   1.786   2.714   3.298 -0.2245 -0.1719 -0.1073
  290UNL    CL1 1568   1.683   2.708   3.145 -0.1936  0.2329 -0.0265
  290UNL    CL2 1569   1.791   2.886   3.344  0.4701 -0.2892 -0.0472
  290UNL      H 1570   1.888   2.682   3.271 -0.5124 -2.8311  1.5608
  291UNL     CL 1571   0.313   2.215   2.481  0.1715 -0.0972 -0.2008
  291UNL      C 1572   0.168   2.316   2.421 -0.0397 -0.5914  0.0709
  291UNL    CL1 1573   0.221   2.437   2.293  0.2694  0.0557  0.2118
  291UNL    CL2 1574   0.054   2.216   2.343  0.0098  0.2150 -0.0936
  291UNL      H 1575   0.113   2.364   2.503  1.1673  0.4955  0.2616
  292UNL     CL 1576   3.038   2.901   3.831 -0.0951 -0.0577  0.0358
  292UNL      C 1577   2.936   3.028   3.759 -0.8811 -1.1878 -0.2889
  292UNL    CL1 1578   2.995   3.186   3.809 -0.1174 -0.2737 -0.2904
  292UNL    CL2 1579   2.925   3.041   3.576  0.4281  0.1389  0.1752
  292UNL      H 1580   2.832   3.022   3.795 -1.6137 -3.2286 -2.4640
  293UNL     CL 1581   3.796   1.786   0.803 -0.0123  0.1820  0.0225
  293UNL      C 1582   3.885   1.775   0.639  0.4896  0.6263 -0.3268
  293UNL    CL1 1583   3.895   1.606   0.580 -0.3890 -0.0305  0.0993
  293UNL    CL2 1584   3.818   1.896   0.531  0.0550  0.0713  0.2148
  293UNL      H 1585   3.992   1.799   0.647  0.1995  1.9144 -0.1336
  294UNL     CL 1586   3.922   4.023   3.130  0.1351  0.1933 -0.1848
  294UNL      C 1587   3.928   3.850   3.120  0.0524 -0.1717  0.6104
  294UNL    CL1 1588   3.758   3.804   3.136  0.1393 -0.0393  0.6334
  294UNL    CL2 1589   3.987   3.790   2.957  0.0842  0.0651 -0.4189
  294UNL      H 1590   3.975   3.794   3.202 -0.0693  1.9524  2.2173
  295UNL     CL 1591   1.392   2.585   0.952  0.1331  0.4016  0.1960
  295UNL      C 1592   1.299   2.613   0.805 -0.2377 -0.6605 -0.1888
  295UNL    CL1 1593   1.216   2.463   0.763 -0.2272 -0.0446 -0.4850
  295UNL    CL2 1594   1.172   2.750   0.827  0.2083 -0.2060  0.2577
  295UNL      H 1595   1.363   2.644   0.722  1.1551 -2.3254  0.2253
  296UNL     CL 1596   1.044   3.268   1.197 -0.3213 -0.3475  0.3022
  296UNL      C 1597   1.194   3.182   1.229  0.1989 -0.3179 -0.1873
  296UNL    CL1 1598   1.173   3.008   1.207  0.0594  0.1259  0.1494
  296UNL    CL2 1599   1.331   3.235   1.125  0.0562 -0.1910  0.0941
  296UNL      H 1600   1.226   3.197   1.332  0.1813  1.4162 -0.4086
  297UNL     CL 1601   2.732   2.964   2.770  0.3630 -0.0555  0.6235
  297UNL      C 1602   2.591   3.086   2.798 -0.3053  0.5435 -0.1992
  297UNL    CL1 1603   2.560   3.190   2.655  0.2191 -0.1601  0.0966
  297UNL    CL2 1604   2.445   2.993   2.847  0.2385  0.0939  0.0726
  297UNL      H 1605   2.612   3.152   2.882  0.8402 -0.0341 -0.0022
  298UNL     CL 1606   0.722   1.652   0.859 -0.2820 -0.1799 -0.2873
  298UNL      C 1607   0.754   1.830   0.818 -0.6837  0.2893  1.0781
  298UNL    CL1 1608   0.681   1.942   0.951  0.0883 -0.4445  0.0200
  298UNL    CL2 1609   0.932   1.864   0.824 -0.3431  0.1445  0.1000
  298UNL      H 1610   0.716   1.845   0.716  1.9958  0.1618 -0.0273
  299UNL     CL 1611   0.011   0.292   1.801 -0.3676 -0.1129  0.4843
  299UNL      C 1612   0.052   0.186   1.935 -0.1120  0.2764 -0.9102
  299UNL    CL1 1613  -0.077   0.187   2.073 -0.3192  0.2113  0.1155
  299UNL    CL2 1614   0.079   0.014   1.866  0.3940 -0.0050  0.4572
  299UNL      H 1615   0.150   0.210   1.978  0.3956 -2.4293 -0.3933
  300UNL     CL 1616   3.385   3.128   3.344  0.2177  0.4131 -0.0128
  300UNL      C 1617   3.295   3.002   3.244  0.0467 -0.1261  0.0090
  300UNL    CL1 1618   3.111   3.036   3.247  0.0076 -0.0135 -0.2795
  300UNL    CL2 1619   3.355   3.001   3.073 -0.0584  0.5588 -0.2915
  300UNL      H 1620   3.314   2.902   3.285  0.2146  0.8539  2.5315
  301UNL     CL 1621   2.509   0.671   3.034 -0.2100  0.2952  0.0705
  301UNL      C 1622   2.644   0.583   3.118  0.8519 -0.0878 -0.3271
  301UNL    CL1 1623   2.795   0.610   3.041 -0.3315  0.1833 -0.2151
  301UNL    CL2 1624   2.645   0.648   3.285  0.0814  0.0429  0.0095
  301UNL      H 1625   2.622   0.477   3.134 -0.9421  0.2150 -0.5685
  302UNL     CL 1626   3.112   2.068   0.762 -0.3183 -0.1423 -0.1295
  302UNL      C 1627   3.036   2.234   0.780  0.5981  0.6488 -0.2701
  302UNL    CL1 1628   3.027   2.306   0.613 -0.1791 -0.1933  0.4360
  302UNL    CL2 1629   2.871   2.236   0.852  0.1545  0.1826 -0.3507
  302UNL      H 1630   3.108   2.293   0.838  1.1147 -0.3962  0.1633
  303UNL     CL 1631   0.906   2.403   2.940  0.3702 -0.1404  0.0401
  303UNL      C 1632   0.772   2.511   2.872  0.1786 -0.0062  1.0885
  303UNL    CL1 1633   0.773   2.661   2.965  0.6194 -0.1892 -0.0726
  303UNL    CL2 1634   0.803   2.549   2.696  0.0368  0.1092 -0.1644
  303UNL      H 1635   0.677   2.456   2.882 -0.0352  0.4389  1.5458
  304UNL     CL 1636   0.067   0.456   3.597 -0.2296 -0.1749 -0.4729
  304UNL      C 1637   0.231   0.521   3.583 -0.6140 -0.4509 -0.0210
  304UNL    CL1 1638   0.265   0.586   3.419 -0.0048 -0.1874  0.5534
  304UNL    CL2 1639   0.254   0.645   3.707 -0.3027  0.0249  0.3582
  304UNL      H 1640   0.299   0.438   3.607 -0.8456 -0.9857 -1.1446
  305UNL     CL 1641   2.133   0.268   2.543 -0.0757  0.5854  0.0753
  305UNL      C 1642   2.130   0.216   2.374 -0.0996 -0.0022 -0.2314
  305UNL    CL1 1643   2.041   0.061   2.360 -0.0336 -0.3131  0.4344
  305UNL    CL2 1644   2.065   0.349   2.269 -0.0731 -0.0789  0.3268
  305UNL      H 1645   2.236   0.201   2.352 -0.7898  0.1860 -4.5215
  306UNL     CL 1646   0.172   0.869   1.690  0.0356  0.0266  0.0179
  306UNL      C 1647   0.276   1.005   1.690  0.0383 -0.8586  0.3923
  306UNL    CL1 1648   0.199   1.148   1.620  0.7137  0.1032  0.2652
  306UNL    CL2 1649   0.331   1.037   1.860 -0.1986 -0.2047  0.2327
  306UNL      H 1650   0.367   0.986   1.632  1.4294  1.7728  1.5466
  307UNL     CL 1651   1.823   0.383   1.676  0.5598  0.2273 -0.1738
  307UNL      C 1652   1.965   0.327   1.750  0.4757 -0.5700 -0.0044
  307UNL    CL1 1653   1.962   0.151   1.769  0.0818 -0.0646 -0.1030
  307UNL    CL2 1654   2.104   0.373   1.654  0.2027  0.1266  0.5827
  307UNL      H 1655   1.976   0.373   1.849  1.4945  1.0709 -0.8476
  308UNL     CL 1656   3.698   1.069   3.919 -0.0735  0.4407 -0.1306
  308UNL      C 1657   3.781   1.217   3.855 -0.8595  0.4021  0.6127
  308UNL    CL1 1658   3.766   1.357   3.962  0.1071  0.4979 -0.0585
  308UNL    CL2 1659   3.956   1.184   3.824 -0.0092  0.5713  0.2000
  308UNL      H 1660   3.726   1.241   3.763 -1.7282 -0.1324  0.9768
  309UNL     CL 1661   3.154   0.789   1.222 -0.4118  0.2426  0.2951
  309UNL      C 1662   3.109   0.726   1.054  0.2904  0.4501  0.4085
  309UNL    CL1 1663   3.249   0.633   0.985 -0.0763 -0.8232  0.0610
  309UNL    CL2 1664   2.962   0.618   1.069 -0.6742 -0.1134 -0.2113
  309UNL      H 1665   3.085   0.810   0.989 -0.4291  0.4617  0.6735
  310UNL     CL 1666   1.944   2.136   0.702 -0.2381  0.1251  0.0700
  310UNL      C 1667   2.093   2.239   0.686 -0.2164 -0.3370  0.0413
  310UNL    CL1 1668   2.132   2.319   0.835  0.5237  0.0005 -0.0124
  310UNL    CL2 1669   2.225   2.132   0.633 -0.0223  0.2614 -0.6738
  310UNL      H 1670   2.073   2.320   0.615 -0.5439 -0.5043 -0.0613
  311UNL     CL 1671   1.490   3.719   3.715 -0.1756 -0.0241 -0.0341
  311UNL      C 1672   1.479   3.543   3.682  0.4233  0.8184  0.3450
  311UNL    CL1 1673   1.310   3.506   3.640  0.1048  0.5041 -0.3717
  311UNL    CL2 1674   1.596   3.477   3.565  0.2750  0.4159  0.0864
  311UNL      H 1675   1.492   3.489   3.777 -2.2784 -1.6396 -0.5322
  312UNL     CL 1676   2.856   0.214   3.930 -0.1004 -0.0438 -0.3446
  312UNL      C 1677   2.745   0.091   3.854  0.0936 -0.2299 -0.2844
  312UNL    CL1 1678   2.843  -0.019   3.741  0.3575  0.1268 -0.1744
  312UNL    CL2 1679   2.675  -0.009   3.986  0.0957 -0.2863 -0.4126
  312UNL      H 1680   2.660   0.137   3.803  1.2085  2.6567  0.2594
  313UNL     CL 1681   0.547   3.223   0.263 -0.3464  0.2402 -0.1827
  313UNL      C 1682   0.485   3.060   0.325 -0.3185 -0.6269  0.5918
  313UNL    CL1 1683   0.307   3.046   0.289 -0.1453 -0.3959 -0.1213
  313UNL    CL2 1684   0.584   2.936   0.247  0.0006  0.3445  0.1423
  313UNL      H 1685   0.501   3.049   0.432 -3.0997  0.9920  1.2875
  314UNL     CL 1686   3.719   0.897   1.666 -0.5339  0.4652  0.0196
  314UNL      C 1687   3.833   0.846   1.813  0.4865  0.4070  0.3610
  314UNL    CL1 1688   3.923   0.701   1.755  0.0771  0.2739 -0.1172
  314UNL    CL2 1689   3.949   0.972   1.863  0.3201  0.2143  0.2523
  314UNL      H 1690   3.772   0.818   1.900 -0.6709 -0.5377 -0.7133
  315UNL     CL 1691   1.661   1.859   3.682 -0.1555  0.2358  0.1150
  315UNL      C 1692   1.825   1.846   3.612 -0.0346 -0.2279 -0.0258
  315UNL    CL1 1693   1.935   1.749   3.711 -0.3190  0.1906  0.1294
  315UNL    CL2 1694   1.799   1.749   3.467  0.1685  0.0520 -0.3950
  315UNL      H 1695   1.874   1.941   3.591  2.1574 -1.1188  0.7436
  316UNL     CL 1696   3.331   1.344   3.942  0.2626 -0.1839 -0.3486
  316UNL      C 1697   3.239   1.401   4.096  0.4462 -0.2959  0.5642
  316UNL    CL1 1698   3.343   1.493   4.217  0.0263 -0.0047 -0.0332
  316UNL    CL2 1699   3.090   1.498   4.041 -0.3417  0.1036  0.4396
  316UNL      H 1700   3.208   1.306   4.141 -1.4812 -1.2846 -2.5546
  317UNL     CL 1701   2.658   1.781   2.515 -0.5438 -0.2852 -0.2314
  317UNL      C 1702   2.598   1.735   2.678 -0.3514  0.3851 -0.1426
  317UNL    CL1 1703   2.729   1.664   2.770 -0.3496  0.3515 -0.0483
  317UNL    CL2 1704   2.529   1.878   2.771  0.0836  0.2017 -0.1451
  317UNL      H 1705   2.519   1.660   2.673  0.5049 -0.7348  1.7820
  318UNL     CL 1706   3.531   2.808   0.075  0.5856 -0.5077  0.2064
  318UNL      C 1707   3.616   2.679  -0.016 -0.2802 -0.0522 -0.1635
  318UNL    CL1 1708   3.680   2.753  -0.171 -0.0778  0.3001 -0.1168
  318UNL    CL2 1709   3.749   2.604   0.075  0.1088  0.0168 -0.0157
  318UNL      H 1710   3.539   2.610  -0.051 -0.4384  0.1961 -0.3072
  319UNL     CL 1711   3.038   0.758   3.315  0.3903  0.0947  0.2178
  319UNL      C 1712   3.126   0.918   3.303  0.2832 -0.1006 -0.8033
  319UNL    CL1 1713   3.038   1.015   3.181 -0.1838 -0.0076  0.0975
  319UNL    CL2 1714   3.132   1.003   3.456  0.0610 -0.1516 -0.2154
  319UNL      H 1715   3.229   0.903   3.271 -0.4013 -1.4938 -2.4823
  320UNL     CL 1716   2.312   3.338   0.203 -0.2107 -0.1817  0.4009
  320UNL      C 1717   2.171   3.264   0.108 -0.0468  0.0404  0.0514
  320UNL    CL1 1718   2.095   3.386  -0.001 -0.0242 -0.1262  0.5390
  320UNL    CL2 1719   2.241   3.138   0.005  0.0733  0.2684  0.3488
  320UNL      H 1720   2.098   3.219   0.176  0.8528 -2.6642 -0.6415
  321UNL     CL 1721   1.952   0.875   2.265 -0.1769 -0.0370  0.2662
  321UNL      C 1722   1.863   0.818   2.401  0.0652  0.1151  0.0897
  321UNL    CL1 1723   1.868   0.643   2.424 -0.3102  0.1943 -0.2641
  321UNL    CL2 1724   1.900   0.910   2.550  0.1273  0.1694  0.6060
  321UNL      H 1725   1.756   0.837   2.384  0.0469 -1.3362 -1.6778
  322UNL     CL 1726   3.341   0.331   1.871  0.7492  0.2365  0.0670
  322UNL      C 1727   3.304   0.161   1.831 -0.3943  0.0076 -0.1961
  322UNL    CL1 1728   3.167   0.108   1.927 -0.1916  0.0630  0.0570
  322UNL    CL2 1729   3.268   0.138   1.649  0.0879 -0.4088  0.5158
  322UNL      H 1730   3.393   0.101   1.848 -1.6352 -2.1064 -0.7814
  323UNL     CL 1731   2.257   3.659   0.725 -0.5225 -0.1666  0.6272
  323UNL      C 1732   2.357   3.600   0.586  0.6662 -0.1478  0.2496
  323UNL    CL1 1733   2.506   3.687   0.553  0.7203 -0.0036 -0.0202
  323UNL    CL2 1734   2.394   3.414   0.594 -0.0986 -0.2294  0.3707
  323UNL      H 1735   2.290   3.621   0.503 -0.0592  2.1892  1.3362
  324UNL     CL 1736   1.541   3.073   3.808  0.4813 -0.4719 -0.0972
  324UNL      C 1737   1.476   3.025   3.646 -0.8857  0.0329 -0.5715
  324UNL    CL1 1738   1.464   2.851   3.630  0.0193 -0.2188 -0.2686
  324UNL    CL2 1739   1.326   3.123   3.593  0.1720 -0.0997  0.5020
  324UNL      H 1740   1.551   3.051   3.570 -0.4585  2.4432  0.5843
  325UNL     CL 1741   1.659   4.082   1.369  0.2371  0.2040  0.0457
  325UNL      C 1742   1.741   4.208   1.279 -0.4579  0.3162  0.5988
  325UNL    CL1 1743   1.715   4.376   1.344 -0.2635 -0.2149 -0.2108
  325UNL    CL2 1744   1.923   4.182   1.259  0.1277  0.1169 -0.5160
  325UNL      H 1745   1.701   4.212   1.177  0.3382 -0.3041  0.2538
  326UNL     CL 1746   2.946   2.322   3.591  0.1412  0.3138 -0.1922
  326UNL      C 1747   3.077   2.344   3.699  0.0146 -0.7122  0.3972
  326UNL    CL1 1748   3.195   2.215   3.670 -0.3188 -0.2138 -0.6030
  326UNL    CL2 1749   3.161   2.504   3.684  0.0201 -0.3040  0.0116
  326UNL      H 1750   3.049   2.320   3.802 -0.4833 -2.3326 -0.0777
  327UNL     CL 1751   2.221   1.086   2.946 -0.4946  0.1914  0.0992
  327UNL      C 1752   2.181   1.257   2.970 -0.5081 -0.4296  0.0655
  327UNL    CL1 1753   2.157   1.284   3.144 -0.3019 -0.3933 -0.1598
  327UNL    CL2 1754   2.305   1.367   2.898 -0.2059 -0.2456  0.1220
  327UNL      H 1755   2.083   1.271   2.922 -0.0136  1.8635 -0.3944
  328UNL     CL 1756   2.810   1.190   0.763 -0.3190  0.1671 -0.0914
  328UNL      C 1757   2.799   1.183   0.939  1.1359  0.6606  0.3334
  328UNL    CL1 1758   2.778   1.012   0.998 -0.2590  0.1745 -0.0662
  328UNL    CL2 1759   2.941   1.259   1.005  0.0985  0.3444 -0.1690
  328UNL      H 1760   2.712   1.241   0.971  0.7261  1.1482 -1.5406
  329UNL     CL 1761   1.903   2.468   2.680  0.0103  0.4831 -0.2893
  329UNL      C 1762   1.780   2.593   2.728  0.4625 -0.9561  0.6273
  329UNL    CL1 1763   1.708   2.672   2.578 -0.1163  0.5399 -0.1803
  329UNL    CL2 1764   1.643   2.533   2.824 -0.3243  0.0729  0.4403
  329UNL      H 1765   1.832   2.672   2.783  1.1829  0.6157 -2.0947
  330UNL     CL 1766   3.524   2.178   3.079 -0.1179 -0.1125  0.0231
  330UNL      C 1767   3.480   2.029   2.986  0.0947  0.3300 -0.5731
  330UNL    CL1 1768   3.616   1.912   3.000 -0.3497  0.2332 -0.6868
  330UNL    CL2 1769   3.346   1.948   3.074  0.0036 -0.2590 -0.0917
  330UNL      H 1770   3.462   2.058   2.882 -0.7029  0.0231 -0.5249
  331UNL     CL 1771   2.300   0.615   2.402 -0.2326  0.1605  0.0800
  331UNL      C 1772   2.338   0.582   2.568  0.3497  0.2240  0.2486
  331UNL    CL1 1773   2.498   0.650   2.599 -0.0352 -0.3345  0.1546
  331UNL    CL2 1774   2.220   0.667   2.681 -0.6152  0.2404 -0.0365
  331UNL      H 1775   2.333   0.475   2.590 -2.1037 -0.4874 -3.0133
  332UNL     CL 1776   1.745   2.200   2.449 -0.2329  0.0915  0.1837
  332UNL      C 1777   1.636   2.337   2.463 -0.6005 -0.0970 -0.5029
  332UNL    CL1 1778   1.605   2.399   2.307 -0.0279 -0.5343  0.1944
  332UNL    CL2 1779   1.487   2.296   2.542 -0.1804 -0.3674 -0.1980
  332UNL      H 1780   1.690   2.414   2.520 -2.2786  0.7472  0.0201
  333UNL     CL 1781   0.761   2.005   4.026  0.7578 -0.1132 -0.3757
  333UNL      C 1782   0.725   1.876   3.897  0.6802 -0.2270 -0.5071
  333UNL    CL1 1783   0.787   1.926   3.728  0.2879 -0.1566  0.3311
  333UNL    CL2 1784   0.783   1.712   3.940 -0.3869  0.2576  0.3849
  333UNL      H 1785   0.617   1.860   3.901  0.6780 -0.2343 -0.5952
  334UNL     CL 1786   1.353   3.026   2.543 -0.0346 -0.1900 -0.0337
  334UNL      C 1787   1.369   3.198   2.526 -1.2095 -0.2237 -0.2014
  334UNL    CL1 1788   1.535   3.246   2.471  0.0007 -0.2720  0.2729
  334UNL    CL2 1789   1.237   3.251   2.417  0.2266 -0.1613  0.2962
  334UNL      H 1790   1.359   3.243   2.626 -2.1531 -0.3870 -0.2050
  335UNL     CL 1791   3.432   0.276   2.454 -0.2683  0.4538 -0.0659
  335UNL      C 1792   3.306   0.291   2.574  0.4417  0.2102  0.1974
  335UNL    CL1 1793   3.394   0.285   2.733 -0.1426  0.2907  0.0341
  335UNL    CL2 1794   3.214   0.439   2.549 -0.2929 -0.4967 -0.2451
  335UNL      H 1795   3.246   0.200   2.565  1.7908 -0.7436  0.5330
  336UNL     CL 1796   0.208   0.943   3.921 -0.4886  0.0562  0.1962
  336UNL      C 1797   0.181   1.068   3.793 -0.6683 -0.2248 -0.4870
  336UNL    CL1 1798   0.320   1.189   3.790  0.2912  0.0996  0.6906
  336UNL    CL2 1799   0.171   0.994   3.637 -0.2519  0.1016 -0.2680
  336UNL      H 1800   0.085   1.114   3.816 -0.5194  0.3068 -0.9142
  337UNL     CL 1801   1.372   0.766   3.421  0.0062  0.0470 -0.1020
  337UNL      C 1802   1.281   0.620   3.449  0.1328  0.0850 -0.3982
  337UNL    CL1 1803   1.217   0.636   3.626 -0.1269  0.0207 -0.4963
  337UNL    CL2 1804   1.142   0.628   3.345 -0.2804  0.1839 -0.0457
  337UNL      H 1805   1.350   0.539   3.424 -1.3903 -0.9203 -1.5378
  338UNL     CL 1806   3.802   0.092   0.531  0.0251 -0.1458  0.4001
  338UNL      C 1807   3.737   0.022   0.690 -0.4499 -0.1615 -0.1156
  338UNL    CL1 1808   3.606  -0.086   0.643  0.1784  0.1502  0.2978
  338UNL    CL2 1809   3.872  -0.062   0.768 -0.1016 -0.1592 -0.1826
  338UNL      H 1810   3.705   0.105   0.753  1.8222  0.8079 -0.1489
  339UNL     CL 1811   2.077   2.956   3.900  0.1221 -0.3665 -0.1290
  339UNL      C 1812   2.026   3.090   3.793 -0.4734 -0.1489 -0.3104
  339UNL    CL1 1813   1.887   3.180   3.877  0.2434  0.0978 -0.4162
  339UNL    CL2 1814   2.175   3.187   3.773 -0.0432  0.2844 -0.3806
  339UNL      H 1815   2.000   3.058   3.691  0.3466 -0.7005 -0.3545
  340UNL     CL 1816   3.731   0.012   1.170  0.4212 -0.0427  0.0928
  340UNL      C 1817   3.655  -0.151   1.174 -0.1070  0.0063 -0.5849
  340UNL    CL1 1818   3.560  -0.173   1.329  0.2668  0.0490  0.3169
  340UNL    CL2 1819   3.553  -0.174   1.030  0.1767  0.1260 -0.0829
  340UNL      H 1820   3.737  -0.222   1.172 -0.8761 -0.8922 -1.0009
  341UNL     CL 1821   0.139   3.795   2.681  0.0403 -0.1237 -0.1534
  341UNL      C 1822   0.184   3.918   2.808  0.2843  0.1722  0.5638
  341UNL    CL1 1823   0.245   3.838   2.942 -0.2291  0.1001 -0.3127
  341UNL    CL2 1824   0.288   4.053   2.753  0.1959 -0.3222 -0.2218
  341UNL      H 1825   0.089   3.966   2.830  0.3144  0.9835 -0.9759
  342UNL     CL 1826   0.949   1.313   3.028  0.3931  0.0406 -0.5542
  342UNL      C 1827   1.047   1.443   2.954  0.2094  0.2261  0.1926
  342UNL    CL1 1828   0.996   1.500   2.791 -0.4219  0.1373  0.0419
  342UNL    CL2 1829   1.053   1.573   3.076  0.1092  0.1916 -0.2407
  342UNL      H 1830   1.146   1.399   2.941  0.6492  1.2205  0.0734
  343UNL     CL 1831   1.680   1.419   3.725  0.2346  0.5214  0.2345
  343UNL      C 1832   1.585   1.405   3.884  0.0514 -1.1663 -0.2312
  343UNL    CL1 1833   1.703   1.370   4.011  0.0753 -0.0376  0.1595
  343UNL    CL2 1834   1.493   1.542   3.910  0.0128 -0.1241  0.0894
  343UNL      H 1835   1.519   1.320   3.860 -0.7330 -0.5583 -0.2593
  344UNL     CL 1836   2.858   2.777   3.072 -0.0379  0.3536  0.7606
  344UNL      C 1837   2.804   2.869   3.219 -0.5024  0.5007 -0.6595
  344UNL    CL1 1838   2.708   3.020   3.186  0.2780 -0.0815 -0.1905
  344UNL    CL2 1839   2.723   2.762   3.345 -0.1707 -0.2847 -0.5148
  344UNL      H 1840   2.903   2.895   3.259 -0.5255 -1.4452  0.8427
  345UNL     CL 1841   1.479   1.047   2.212 -0.2987 -0.3089 -0.1981
  345UNL      C 1842   1.417   0.936   2.089 -0.7968  0.7426  0.0753
  345UNL    CL1 1843   1.508   0.786   2.105  0.1989 -0.1157  0.4844
  345UNL    CL2 1844   1.242   0.900   2.095 -0.6642  0.0869 -0.2684
  345UNL      H 1845   1.435   0.993   1.997  1.0665 -2.0277 -1.4307
  346UNL     CL 1846   3.398   2.908   3.631 -0.0211 -0.5657  0.4006
  346UNL      C 1847   3.569   2.925   3.661  0.1298 -0.1991 -0.2516
  346UNL    CL1 1848   3.664   2.897   3.507 -0.0260  0.1698 -0.3054
  346UNL    CL2 1849   3.581   3.098   3.714  0.5950 -0.1350 -0.3059
  346UNL      H 1850   3.591   2.854   3.741  0.0399 -0.9328 -0.8693
  347UNL     CL 1851   2.841   2.034   3.333  0.0664  0.1250  0.0280
  347UNL      C 1852   3.018   2.002   3.366 -0.6265  0.5330 -0.1494
  347UNL    CL1 1853   3.073   1.831   3.314  0.3494 -0.1856 -0.1600
  347UNL    CL2 1854   3.120   2.124   3.296  0.1822 -0.2023  0.1795
  347UNL      H 1855   3.026   2.015   3.475  2.6461  1.0234 -0.3230
  348UNL     CL 1856   3.203   2.587   2.216 -0.2289  0.3622  0.2276
  348UNL      C 1857   3.089   2.657   2.098 -0.0779 -0.1680  0.2169
  348UNL    CL1 1858   3.187   2.752   1.973 -0.0317 -0.3870 -0.1510
  348UNL    CL2 1859   2.961   2.534   2.034 -0.4829 -0.0808 -0.2215
  348UNL      H 1860   3.045   2.738   2.156  1.2070 -0.5567  1.7955
  349UNL     CL 1861   0.146   4.098   3.322 -0.0140  0.2832  0.2211
  349UNL      C 1862   0.217   4.200   3.196  0.8806  0.4171 -0.0305
  349UNL    CL1 1863   0.130   4.178   3.044 -0.4431 -0.0659  0.0394
  349UNL    CL2 1864   0.242   4.366   3.239  0.0988 -0.3159 -0.2641
  349UNL      H 1865   0.315   4.151   3.192 -0.2459 -2.2919  2.0459
  350UNL     CL 1866   2.023   4.104   3.628  0.3857 -0.2311 -0.1329
  350UNL      C 1867   2.025   4.263   3.540  0.6003  0.4010  0.2194
  350UNL    CL1 1868   2.177   4.294   3.461 -0.0187  0.4142  0.3608
  350UNL    CL2 1869   1.894   4.258   3.406 -0.0575  0.0504 -0.2195
  350UNL      H 1870   2.005   4.339   3.616 -0.1821  1.8864 -1.3955
  351UNL     CL 1871   2.193   1.118   1.949  0.1534 -0.0255 -0.3914
  351UNL      C 1872   2.208   1.274   1.861 -0.0405  0.4699  0.4869
  351UNL    CL1 1873   2.348   1.280   1.746  0.2449  0.4559 -0.2679
  351UNL    CL2 1874   2.058   1.330   1.781  0.3367  0.4447 -0.4055
  351UNL      H 1875   2.224   1.352   1.936 -0.5795  2.1402 -1.0853
  352UNL     CL 1876   2.900   1.586   1.104  0.2318  0.0686  0.2173
  352UNL      C 1877   3.060   1.662   1.067  1.1005 -0.3861 -0.6120
  352UNL    CL1 1878   3.143   1.578   0.933 -0.5860  0.3289  0.5248
  352UNL    CL2 1879   3.032   1.840   1.022 -0.2709 -0.0021 -0.1652
  352UNL      H 1880   3.125   1.640   1.152  1.6468 -2.3182 -1.4727
  353UNL     CL 1881   3.748   3.996   1.669 -0.0837 -0.0788 -0.5541
  353UNL      C 1882   3.696   3.836   1.616 -0.7479 -0.7492 -0.0664
  353UNL    CL1 1883   3.834   3.766   1.518 -0.4940  0.2964 -0.1808
  353UNL    CL2 1884   3.668   3.740   1.767  0.2814  0.1099  0.2181
  353UNL      H 1885   3.607   3.839   1.553 -1.8210  2.3965  1.4254
  354UNL     CL 1886   0.489   1.101   2.997  0.4819  0.4038 -0.2823
  354UNL      C 1887   0.595   1.225   3.080  0.3364  0.1093 -0.4464
  354UNL    CL1 1888   0.527   1.390   3.086 -0.0420 -0.2051 -0.1412
  354UNL    CL2 1889   0.634   1.144   3.237 -0.0980 -0.4645  0.1222
  354UNL      H 1890   0.686   1.231   3.019  0.8160 -0.3493  0.2101
  355UNL     CL 1891   1.569   0.135   0.283  0.2125  0.3588  0.0769
  355UNL      C 1892   1.442   0.212   0.187  0.1463  0.4291 -0.7637
  355UNL    CL1 1893   1.313   0.262   0.296  0.1765 -0.8209  0.1454
  355UNL    CL2 1894   1.521   0.341   0.092 -0.2793  0.0120  0.1761
  355UNL      H 1895   1.386   0.143   0.123  0.7794  0.9540 -1.9213
  356UNL     CL 1896   3.348   0.691   3.460  0.0279  0.4567 -0.2201
  356UNL      C 1897   3.515   0.643   3.506  0.7974 -0.0352  0.7013
  356UNL    CL1 1898   3.540   0.686   3.680  0.0013  0.1904 -0.2273
  356UNL    CL2 1899   3.549   0.462   3.473 -0.0281  0.2694 -0.1535
  356UNL      H 1900   3.585   0.703   3.448  1.8060 -1.4138  0.4484
  357UNL     CL 1901   2.069   1.221   3.669  0.0087 -0.4479  0.2741
  357UNL      C 1902   2.106   1.317   3.522  0.0536 -0.3410 -0.7405
  357UNL    CL1 1903   1.953   1.395   3.470  0.0726 -0.4185 -0.0072
  357UNL    CL2 1904   2.233   1.456   3.567  0.0191 -0.0802  0.3814
  357UNL      H 1905   2.141   1.249   3.443 -0.2437 -1.4262  0.0401
  358UNL     CL 1906   3.965   3.861   1.907 -0.1388 -0.1918  0.0827
  358UNL      C 1907   4.079   3.723   1.875 -0.0966 -0.5034  0.6629
  358UNL    CL1 1908   4.245   3.764   1.931  0.0983 -0.1087  0.0752
  358UNL    CL2 1909   4.018   3.581   1.966  0.0262 -0.3576  0.2600
  358UNL      H 1910   4.077   3.703   1.768 -1.4972 -0.5298  0.6731
  359UNL     CL 1911   2.519   3.061   0.284  0.2687  0.1160  0.3171
  359UNL      C 1912   2.475   2.932   0.400 -0.6268  0.1991  0.2147
  359UNL    CL1 1913   2.428   2.781   0.311  0.2329 -0.4553  0.0526
  359UNL    CL2 1914   2.621   2.895   0.510  0.3144  0.1180 -0.0017
  359UNL      H 1915   2.391   2.968   0.461 -0.4604  0.7363  0.1385
  360UNL     CL 1916   2.461   2.443   0.498 -0.1706 -0.3227  0.0335
  360UNL      C 1917   2.398   2.423   0.332 -0.3103 -0.1223 -0.1026
  360UNL    CL1 1918   2.526   2.367   0.207 -0.4371 -0.1446 -0.1808
  360UNL    CL2 1919   2.272   2.288   0.342 -0.0501  0.1322 -0.2115
  360UNL      H 1920   2.350   2.512   0.289  1.2044  0.5389 -0.4929
  361UNL     CL 1921   1.678   1.024   3.797 -0.4744  0.0742  0.3207
  361UNL      C 1922   1.636   0.991   3.632 -0.0381 -0.9554  0.6735
  361UNL    CL1 1923   1.633   1.140   3.540  0.0182 -0.1109  0.0707
  361UNL    CL2 1924   1.759   0.874   3.559 -0.4409  0.3169 -0.4735
  361UNL      H 1925   1.536   0.948   3.635 -0.4410 -0.0611  0.2103
  362UNL     CL 1926   0.704   1.057   0.740 -0.1316 -0.4196 -0.5667
  362UNL      C 1927   0.687   0.895   0.824  0.2689 -0.1703  0.3106
  362UNL    CL1 1928   0.657   0.770   0.702 -0.3276 -0.0719  0.5138
  362UNL    CL2 1929   0.838   0.852   0.912 -0.0679  0.1021  0.3237
  362UNL      H 1930   0.602   0.899   0.893 -0.6936  2.6415 -0.8694
  363UNL     CL 1931   2.643   2.895   1.195  0.9816  0.4971 -0.1265
  363UNL      C 1932   2.490   2.850   1.286 -0.1896 -0.0016 -0.1411
  363UNL    CL1 1933   2.357   2.828   1.173  0.3290  0.1058  0.2495
  363UNL    CL2 1934   2.524   2.690   1.377  0.0222  0.1679 -0.3908
  363UNL      H 1935   2.463   2.927   1.359 -0.8570 -0.3414 -0.0159
  364UNL     CL 1936   2.755   3.435   1.719 -0.1320  0.1483  0.1455
  364UNL      C 1937   2.745   3.612   1.696  0.4803 -0.4985 -0.5937
  364UNL    CL1 1938   2.675   3.643   1.537  0.0345  0.1589  0.4875
  364UNL    CL2 1939   2.631   3.700   1.810  0.1936 -0.1749 -0.3771
  364UNL      H 1940   2.842   3.660   1.712 -0.6198  1.2147  1.4092
  365UNL     CL 1941   2.429   2.807   1.692 -0.1952  0.0753  0.5532
  365UNL      C 1942   2.316   2.760   1.824  0.2745 -0.2062 -0.5438
  365UNL    CL1 1943   2.370   2.831   1.990  0.2473 -0.0786  0.3550
  365UNL    CL2 1944   2.134   2.805   1.778 -0.1190 -0.2237 -0.0986
  365UNL      H 1945   2.332   2.653   1.842 -2.0552 -0.4821  0.3276
  366UNL     CL 1946   2.930   2.500   0.341  0.3977 -0.3515  0.0962
  366UNL      C 1947   3.099   2.565   0.319  1.1209  0.2168  0.5017
  366UNL    CL1 1948   3.159   2.638   0.472  0.3331 -0.0427 -0.4038
  366UNL    CL2 1949   3.198   2.419   0.276  0.0957  0.0426  0.0677
  366UNL      H 1950   3.108   2.639   0.239  2.5787 -0.1163  0.3345
  367UNL     CL 1951   0.358   1.770   2.389  0.4841  0.0788 -0.0226
  367UNL      C 1952   0.379   1.595   2.344  0.0085  0.6225 -0.3446
  367UNL    CL1 1953   0.376   1.488   2.487  0.0065 -0.2968 -0.0648
  367UNL    CL2 1954   0.251   1.543   2.233  0.3059  0.2989 -0.4125
  367UNL      H 1955   0.474   1.578   2.292 -0.6481 -2.6606 -0.6789
  368UNL     CL 1956   2.938   3.148   1.644  0.0387 -0.4413 -0.0550
  368UNL      C 1957   2.801   3.026   1.650  0.3402 -0.7897  0.6670
  368UNL    CL1 1958   2.779   2.977   1.480  0.3119 -0.1206 -0.3534
  368UNL    CL2 1959   2.838   2.888   1.765  0.1696 -0.1941 -0.1349
  368UNL      H 1960   2.711   3.078   1.685  0.6706 -0.2594  0.7315
  369UNL     CL 1961   3.684   3.220   0.044  0.2117 -0.1153 -0.0622
  369UNL      C 1962   3.797   3.121   0.151  1.1680 -0.4168  0.4536
  369UNL    CL1 1963   3.690   3.051   0.274  0.1884  0.0004 -0.1536
  369UNL    CL2 1964   3.875   2.990   0.053 -0.0575  0.0351  0.3896
  369UNL      H 1965   3.868   3.192   0.194  0.0532  0.0532  1.5750
  370UNL     CL 1966   0.416   3.067   1.899  0.4254  0.3772  0.0565
  370UNL      C 1967   0.260   3.096   1.812  0.0033  0.1116  0.3000
  370UNL    CL1 1968   0.226   3.269   1.795  0.1405  0.0313 -0.4112
  370UNL    CL2 1969   0.270   3.023   1.642 -0.1807  0.0870 -0.1434
  370UNL      H 1970   0.178   3.048   1.866  0.3114 -0.8469 -0.0681
  371UNL     CL 1971   3.864   2.716   2.756 -0.3124 -0.0480 -0.3386
  371UNL      C 1972   3.809   2.882   2.717 -0.5058 -0.0682  0.0314
  371UNL    CL1 1973   3.723   2.967   2.860 -0.4968  0.1944 -0.1616
  371UNL    CL2 1974   3.930   2.979   2.627 -0.5561  0.3214 -0.0591
  371UNL      H 1975   3.732   2.866   2.641 -0.1345  0.4141 -0.4472
  372UNL     CL 1976   1.737   3.836   2.182  0.2596  0.0977  0.4938
  372UNL      C 1977   1.636   3.892   2.318  0.0284 -0.4190  0.0835
  372UNL    CL1 1978   1.758   3.918   2.461  0.3769 -0.0362 -0.2575
  372UNL    CL2 1979   1.561   4.056   2.270 -0.3172  0.2288  0.3736
  372UNL      H 1980   1.556   3.823   2.347  0.0224  0.0489  1.2304
  373UNL     CL 1981   1.576   0.067   3.232  0.0175  0.0277  0.1723
  373UNL      C 1982   1.451   0.012   3.350  0.9077 -0.2720  0.1549
  373UNL    CL1 1983   1.292   0.084   3.295  0.0471  0.2206  0.2655
  373UNL    CL2 1984   1.435  -0.165   3.368  0.2300  0.3203  0.2979
  373UNL      H 1985   1.480   0.057   3.446  0.3824 -2.6129  1.5108
  374UNL     CL 1986   2.573   3.880   2.134 -0.0716  0.0670 -0.0183
  374UNL      C 1987   2.739   3.957   2.127  0.5864  0.1796 -0.2242
  374UNL    CL1 1988   2.854   3.820   2.149  0.1259  0.1238 -0.3399
  374UNL    CL2 1989   2.747   4.048   1.981  0.1690  0.0842  0.0235
  374UNL      H 1990   2.744   4.015   2.220  1.0469 -2.3855  1.4679
  375UNL     CL 1991   0.599   4.079   1.348  0.0407 -0.2266 -0.0948
  375UNL      C 1992   0.514   3.920   1.371  0.5386  0.5278 -0.3911
  375UNL    CL1 1993   0.467   3.911   1.549  0.3109  0.1098  0.1877
  375UNL    CL2 1994   0.383   3.901   1.243 -0.0312 -0.1199 -0.0256
  375UNL      H 1995   0.586   3.839   1.353  1.8994  1.6964 -0.3685
  376UNL     CL 1996   1.168   3.400   2.851 -0.3580 -0.0053  0.0060
  376UNL      C 1997   1.020   3.480   2.781 -1.0185 -0.2099  0.2156
  376UNL    CL1 1998   1.017   3.443   2.606 -0.0675  0.0004 -0.2537
  376UNL    CL2 1999   0.879   3.393   2.852 -0.2623  0.1992 -0.4543
  376UNL      H 2000   1.014   3.588   2.796 -0.2182  0.4595 -3.3400
  377UNL     CL 2001   3.511   2.664   0.422  0.4055 -0.2008 -0.1486
  377UNL      C 2002   3.657   2.752   0.498  0.4689 -0.2551 -0.4275
  377UNL    CL1 2003   3.691   2.687   0.666 -0.1107  0.2284 -0.1283
  377UNL    CL2 2004   3.807   2.735   0.394  0.2814 -0.1986 -0.1286
  377UNL      H 2005   3.635   2.857   0.517  1.5093  0.4960 -2.9457
  378UNL     CL 2006   1.109   1.093   3.984 -0.0847  0.1850  0.4526
  378UNL      C 2007   1.162   0.983   3.849 -0.3833 -0.9621  0.5235
  378UNL    CL1 2008   1.026   0.956   3.739  0.0459 -0.1498 -0.1250
  378UNL    CL2 2009   1.308   1.059   3.773  0.3797  0.1666  0.2098
  378UNL      H 2010   1.196   0.890   3.896 -2.9923 -2.1886  0.1478
  379UNL     CL 2011   0.300   2.977   3.826  0.1028 -0.2991 -0.1586
  379UNL      C 2012   0.300   2.976   3.648 -0.3758 -0.1703  0.0334
  379UNL    CL1 2013   0.217   3.122   3.596  0.0045 -0.1445  0.1724
  379UNL    CL2 2014   0.466   2.993   3.601  0.0022 -0.1446 -0.3623
  379UNL      H 2015   0.268   2.885   3.597  2.3914 -1.9376  1.2745
  380UNL     CL 2016   3.632   1.387   0.770 -0.0311 -0.1410 -0.0672
  380UNL      C 2017   3.738   1.379   0.912 -0.1044 -0.5193 -0.3659
  380UNL    CL1 2018   3.646   1.412   1.069 -0.4252 -0.3877 -0.2977
  380UNL    CL2 2019   3.820   1.222   0.920  0.5132 -0.5111  0.2541
  380UNL      H 2020   3.820   1.449   0.895 -0.9723  0.9683  1.2345
  381UNL     CL 2021   2.139   4.015   1.623  0.0268 -0.1579  0.5055
  381UNL      C 2022   2.296   4.084   1.675  0.1234  0.4264 -0.0929
  381UNL    CL1 2023   2.393   3.987   1.778 -0.0756  0.2234  0.4209
  381UNL    CL2 2024   2.393   4.122   1.527 -0.3276  0.0404 -0.2807
  381UNL      H 2025   2.276   4.177   1.730  0.3543  0.3504  0.1226
  382UNL     CL 2026   4.063   0.783   2.257 -0.2771 -0.0504  0.1906
  382UNL      C 2027   4.130   0.607   2.263 -0.4302  0.3204  0.0758
  382UNL    CL1 2028   4.150   0.539   2.093 -0.1018  0.3652 -0.4121
  382UNL    CL2 2029   4.279   0.593   2.356  0.3518  0.0191 -0.6529
  382UNL      H 2030   4.047   0.552   2.310 -0.9229 -0.7504 -1.9186
  383UNL     CL 2031   3.725   0.806   2.949 -0.2279  0.0968 -0.3230
  383UNL      C 2032   3.737   0.643   3.043  0.1224 -0.5451  0.1512
  383UNL    CL1 2033   3.642   0.657   3.189 -0.1648 -0.1267  0.0681
  383UNL    CL2 2034   3.662   0.510   2.945  0.2171  0.0712 -0.4136
  383UNL      H 2035   3.838   0.614   3.076 -0.0053 -0.9133  0.2169
  384UNL     CL 2036   0.484   1.119   1.351 -0.1869 -0.0641 -0.1884
  384UNL      C 2037   0.418   1.054   1.205  0.8100 -0.4293 -0.3860
  384UNL    CL1 2038   0.525   0.932   1.140  0.3966 -0.1804  0.2386
  384UNL    CL2 2039   0.260   0.972   1.261 -0.0790 -0.6763 -0.1092
  384UNL      H 2040   0.394   1.130   1.130 -1.7936 -1.2756 -0.5045
  385UNL     CL 2041   1.549   1.803   3.121  0.1650  0.0072 -0.1756
  385UNL      C 2042   1.576   1.632   3.099 -0.4376  0.6033  0.4023
  385UNL    CL1 2043   1.474   1.582   2.963  0.0021  0.6918 -0.1592
  385UNL    CL2 2044   1.740   1.562   3.082 -0.0285  0.2964  0.2030
  385UNL      H 2045   1.530   1.580   3.184  0.4746 -0.5912  0.1884
  386UNL     CL 2046   3.136   4.032   0.677 -0.0142 -0.1284  0.1195
  386UNL      C 2047   3.204   3.914   0.569 -0.4398 -0.0454  0.5536
  386UNL    CL1 2048   3.096   3.781   0.545 -0.2574  0.2662 -0.1818
  386UNL    CL2 2049   3.258   3.986   0.423 -0.0098  0.3371  0.2534
  386UNL      H 2050   3.295   3.878   0.619 -0.9023 -1.2348  0.5610
  387UNL     CL 2051   3.670   2.980   1.497 -0.3291  0.2942  0.1222
  387UNL      C 2052   3.736   3.129   1.412  0.5836 -0.0528 -0.4882
  387UNL    CL1 2053   3.909   3.107   1.374  0.0103 -0.1449 -0.3594
  387UNL    CL2 2054   3.637   3.158   1.250 -0.0406 -0.1499  0.2418
  387UNL      H 2055   3.716   3.201   1.492 -0.2447 -3.8272  3.0572
  388UNL     CL 2056   3.481   0.987   3.403 -0.0832 -0.2854  0.0037
  388UNL      C 2057   3.532   1.142   3.473  0.2792 -0.0814  0.0566
  388UNL    CL1 2058   3.422   1.173   3.605 -0.2952  0.0694 -0.1019
  388UNL    CL2 2059   3.695   1.144   3.541 -0.1208  0.3348 -0.1175
  388UNL      H 2060   3.523   1.229   3.407  0.5735  0.7200  1.0493
  389UNL     CL 2061   0.131   4.063   1.488  0.2375 -0.4218  0.4876
  389UNL      C 2062   0.073   4.080   1.320  0.0746  0.1901 -0.6257
  389UNL    CL1 2063  -0.092   4.016   1.299  0.1582  0.0881 -0.0662
  389UNL    CL2 2064   0.105   4.241   1.256 -0.0291 -0.2959 -0.1911
  389UNL      H 2065   0.138   4.011   1.265  0.8721 -0.6550  1.2563
  390UNL     CL 2066   3.143   3.449   0.761 -0.3253 -0.1611  0.2450
  390UNL      C 2067   3.207   3.529   0.910  0.3162 -0.1787 -0.1327
  390UNL    CL1 2068   3.376   3.466   0.939  0.2099 -0.0660 -0.1372
  390UNL    CL2 2069   3.213   3.711   0.896  0.1512  0.0833  0.3593
  390UNL      H 2070   3.142   3.514   0.997  0.3514  0.1959 -0.0393
  391UNL     CL 2071   0.300   3.614   1.088 -0.3071 -0.1726  0.0216
  391UNL      C 2072   0.223   3.552   0.944 -0.2342  0.3573 -0.9394
  391UNL    CL1 2073   0.111   3.417   0.979  0.0687  0.1085  0.3835
  391UNL    CL2 2074   0.152   3.688   0.855  0.2155 -0.0683  0.1008
  391UNL      H 2075   0.308   3.511   0.888  2.3913  1.0000  2.3169
  392UNL     CL 2076   1.562   3.909   1.866  0.1403  0.4155  0.1237
  392UNL      C 2077   1.624   3.854   1.700 -0.0242  0.7086  0.0928
  392UNL    CL1 2078   1.810   3.835   1.709 -0.0872 -0.0092  0.2786
  392UNL    CL2 2079   1.534   3.708   1.650 -0.0564 -0.0825 -0.5539
  392UNL      H 2080   1.606   3.935   1.628  1.3655  0.9681  0.0054
  393UNL     CL 2081   3.258   1.192   1.311  0.0174  0.2240  0.5599
  393UNL      C 2082   3.439   1.177   1.322  0.0571  0.0799  0.2894
  393UNL    CL1 2083   3.493   1.280   1.457  0.1344 -0.1577 -0.4298
  393UNL    CL2 2084   3.495   1.014   1.351  0.2546 -0.1292 -0.1223
  393UNL      H 2085   3.489   1.204   1.229  1.6886  2.1879  1.6713
  394UNL     CL 2086   1.687   3.960   0.864  0.0339  0.2541  0.1524
  394UNL      C 2087   1.836   3.859   0.875  0.0514  0.4306 -0.3271
  394UNL    CL1 2088   1.945   3.908   0.737  0.3392  0.0991 -0.2427
  394UNL    CL2 2089   1.916   3.880   1.038 -0.0821 -0.1633 -0.1100
  394UNL      H 2090   1.812   3.755   0.853 -1.0368  0.6830 -0.3944
  395UNL     CL 2091   3.164   0.407   2.164 -0.1885 -0.2358  0.1798
  395UNL      C 2092   3.003   0.374   2.241  0.4880  0.0299 -0.0047
  395UNL    CL1 2093   2.884   0.325   2.114  0.2623 -0.8328 -0.2928
  395UNL    CL2 2094   3.015   0.259   2.367 -0.3936  0.6680 -0.1640
  395UNL      H 2095   2.965   0.469   2.279 -0.2746 -0.9366  1.7758
  396UNL     CL 2096   2.151   2.593   3.414  0.0655  0.5619 -0.1288
  396UNL      C 2097   2.147   2.672   3.569  0.1172 -0.6514 -0.2933
  396UNL    CL1 2098   2.307   2.710   3.614  0.4073 -0.2864 -0.4521
  396UNL    CL2 2099   2.056   2.829   3.540 -0.1084 -0.4468  0.3876
  396UNL      H 2100   2.105   2.601   3.641  1.1506  0.0677  1.0693
  397UNL     CL 2101   3.527   0.134   2.174 -0.3469  0.0496  0.3088
  397UNL      C 2102   3.634   0.063   2.054  0.6403 -0.1759  0.6303
  397UNL    CL1 2103   3.552  -0.069   1.963 -0.1373 -0.1537 -0.0862
  397UNL    CL2 2104   3.681   0.187   1.932  0.1795  0.2938  0.3156
  397UNL      H 2105   3.721   0.024   2.109  1.0644 -1.7492 -1.0600
  398UNL     CL 2106   0.742   3.380   3.498 -0.2678 -0.1503  0.2915
  398UNL      C 2107   0.643   3.275   3.385 -0.0711 -0.0240  0.0591
  398UNL    CL1 2108   0.465   3.309   3.409 -0.4495  0.0283 -0.0464
  398UNL    CL2 2109   0.679   3.319   3.210  0.2040 -0.6855 -0.1412
  398UNL      H 2110   0.664   3.169   3.401 -2.2223 -0.2909  1.6797
  399UNL     CL 2111   2.964   3.437   1.252  0.0029  0.3287  0.0458
  399UNL      C 2112   2.990   3.598   1.313  0.2630  0.5211 -0.0541
  399UNL    CL1 2113   3.000   3.588   1.485  0.2030  0.4516 -0.2850
  399UNL    CL2 2114   3.151   3.657   1.249  0.1357 -0.1036  0.1974
  399UNL      H 2115   2.910   3.668   1.284 -0.8898 -0.1933  1.2231
  400UNL     CL 2116   2.354   0.006   0.645 -0.0428 -0.0159 -0.2167
  400UNL      C 2117   2.378   0.181   0.641 -0.0665  0.3640  0.7098
  400UNL    CL1 2118   2.550   0.226   0.605  0.2409 -0.2290 -0.2126
  400UNL    CL2 2119   2.265   0.244   0.520  0.5577  0.2561  0.2221
  400UNL      H 2120   2.359   0.224   0.740  2.3113  0.0864  1.3642
  401UNL     CL 2121   2.536   2.385   1.740 -0.3641  0.2500 -0.0151
  401UNL      C 2122   2.408   2.290   1.814  0.0369  0.8824  0.6663
  401UNL    CL1 2123   2.478   2.171   1.933  0.1142 -0.1291  0.1675
  401UNL    CL2 2124   2.285   2.398   1.898 -0.2427  0.0623 -0.2897
  401UNL      H 2125   2.356   2.228   1.739 -2.1732  1.5715  1.5296
  402UNL     CL 2126   3.148   2.679   1.016  0.2584 -0.2067 -0.0565
  402UNL      C 2127   3.144   2.655   0.832 -0.0688  0.1249 -0.2984
  402UNL    CL1 2128   3.226   2.508   0.798  0.4419  0.3929  0.4318
  402UNL    CL2 2129   2.981   2.642   0.780  0.0025 -0.3439  0.3936
  402UNL      H 2130   3.195   2.743   0.791  0.9375 -0.8707 -1.2343
  403UNL     CL 2131   2.310   1.792   0.829 -0.1742  0.3730  0.2331
  403UNL      C 2132   2.315   1.924   0.955  0.3255 -0.1751 -0.2542
  403UNL    CL1 2133   2.422   2.058   0.914  0.1879  0.0800 -0.4988
  403UNL    CL2 2134   2.152   1.997   0.981 -0.0687  0.3465  0.2077
  403UNL      H 2135   2.347   1.880   1.050 -0.3625 -1.0142 -0.3958
  404UNL     CL 2136   0.700   1.011   2.724  0.0378 -0.0827 -0.1745
  404UNL      C 2137   0.747   1.150   2.632 -0.2027 -0.6734  0.1253
  404UNL    CL1 2138   0.652   1.297   2.704 -0.0082  0.1180  0.5456
  404UNL    CL2 2139   0.930   1.165   2.675  0.2204  0.1238  0.0804
  404UNL      H 2140   0.731   1.132   2.526  0.1540 -1.8821  0.2525
  405UNL     CL 2141   2.477   2.407   0.852  0.2413 -0.7132 -0.1327
  405UNL      C 2142   2.499   2.478   1.022  0.0240  0.9505 -0.5787
  405UNL    CL1 2143   2.488   2.347   1.145 -0.2175 -0.2324  0.1708
  405UNL    CL2 2144   2.658   2.540   1.039 -0.6354  0.4913 -0.2027
  405UNL      H 2145   2.429   2.558   1.050  0.3246  1.3363 -0.9281
  406UNL     CL 2146   1.611   1.255   3.205  0.1270 -0.2946 -0.1656
  406UNL      C 2147   1.725   1.106   3.174  0.1988 -0.6723 -0.6900
  406UNL    CL1 2148   1.861   1.110   3.292 -0.0534 -0.2863 -0.1207
  406UNL    CL2 2149   1.630   0.957   3.191 -0.2031  0.3616 -0.0345
  406UNL      H 2150   1.759   1.123   3.071  1.9701 -1.1052 -0.2140
  407UNL     CL 2151   0.395   3.309   0.774 -0.0885  0.1160  0.2519
  407UNL      C 2152   0.431   3.135   0.772  0.7461 -0.6656 -0.4980
  407UNL    CL1 2153   0.322   3.067   0.636 -0.0610  0.5327  0.4258
  407UNL    CL2 2154   0.603   3.109   0.733 -0.4632  0.2073 -0.1516
  407UNL      H 2155   0.406   3.094   0.870 -0.1047 -1.6466 -1.1023
  408UNL     CL 2156   0.051   0.205   0.816 -0.3569 -0.2207 -0.3574
  408UNL      C 2157   0.159   0.089   0.907  0.0571  0.0816 -0.4463
  408UNL    CL1 2158   0.086  -0.067   0.957  0.2081  0.2586  0.4259
  408UNL    CL2 2159   0.317   0.062   0.837  0.1239  0.1487  0.0591
  408UNL      H 2160   0.185   0.127   1.007  0.4863 -1.6828  0.1531
  409UNL     CL 2161   3.311   3.396   3.673 -0.0377  0.2779  0.1694
  409UNL      C 2162   3.366   3.528   3.562 -0.2749 -0.2115  0.3562
  409UNL    CL1 2163   3.430   3.683   3.646 -0.3465  0.4756 -0.0923
  409UNL    CL2 2164   3.488   3.463   3.448 -0.2279  0.1425 -0.3339
  409UNL      H 2165   3.272   3.558   3.513  0.3260  0.8747 -0.1715
  410UNL     CL 2166   0.903   0.507   3.572 -0.5020  0.2039  0.3450
  410UNL      C 2167   0.724   0.485   3.584 -0.0471  0.8356  1.0223
  410UNL    CL1 2168   0.653   0.598   3.688 -0.3432  0.0222  0.2846
  410UNL    CL2 2169   0.651   0.484   3.422 -0.2348  0.0366 -0.0126
  410UNL      H 2170   0.712   0.385   3.627  0.7274  0.3408  0.1334
  411UNL     CL 2171   3.573   3.435   0.360 -0.1686  0.3699 -0.0373
  411UNL      C 2172   3.430   3.484   0.452  0.3129  0.0098 -0.2194
  411UNL    CL1 2173   3.412   3.665   0.475 -0.0780 -0.0149 -0.1972
  411UNL    CL2 2174   3.290   3.420   0.382 -0.2905 -0.4479  0.3117
  411UNL      H 2175   3.439   3.440   0.552 -0.1913  0.0031 -0.1741
  412UNL     CL 2176   0.033   3.703   3.905 -0.1119 -0.2171 -0.0438
  412UNL      C 2177  -0.053   3.697   4.071  0.6035 -0.2792  0.7559
  412UNL    CL1 2178  -0.118   3.534   4.100  0.0028  0.3167 -0.0295
  412UNL    CL2 2179   0.071   3.728   4.187 -0.1498 -0.2218  0.0380
  412UNL      H 2180  -0.128   3.776   4.073  0.4372 -0.4477  1.4901
  413UNL     CL 2181   1.987   0.489   3.441  0.0356 -0.3145  0.2157
  413UNL      C 2182   2.072   0.596   3.327  1.0572  0.5213  0.9340
  413UNL    CL1 2183   2.094   0.513   3.167  0.2681  0.0934  0.0389
  413UNL    CL2 2184   1.985   0.759   3.317 -0.0200 -0.2339  0.0127
  413UNL      H 2185   2.174   0.624   3.357  1.1082  0.4102  0.8650
  414UNL     CL 2186   1.974   2.340   3.630 -0.3751  0.1822 -0.0663
  414UNL      C 2187   1.794   2.319   3.593 -0.0152 -0.3100  0.1202
  414UNL    CL1 2188   1.771   2.152   3.509  0.1991  0.0605 -0.2609
  414UNL    CL2 2189   1.703   2.334   3.749  0.3537  0.4907 -0.0222
  414UNL      H 2190   1.773   2.387   3.510  1.8167 -0.8630 -0.8387
  415UNL     CL 2191   0.588   2.243   1.052 -0.2186  0.5198  0.5755
  415UNL      C 2192   0.510   2.362   0.944  0.0990 -0.4595 -0.2971
  415UNL    CL1 2193   0.413   2.276   0.814  0.1710  0.3374 -0.0146
  415UNL    CL2 2194   0.410   2.485   1.043 -0.4296  0.0046 -0.3162
  415UNL      H 2195   0.587   2.419   0.891  0.3051  0.3154  0.8010
  416UNL     CL 2196   3.440   3.312   2.287 -0.6279  0.3731 -0.3973
  416UNL      C 2197   3.609   3.348   2.229 -0.2678  0.1146 -0.2105
  416UNL    CL1 2198   3.707   3.201   2.265 -0.3447  0.2854  0.0178
  416UNL    CL2 2199   3.602   3.391   2.054 -0.5409 -0.1647 -0.1418
  416UNL      H 2200   3.639   3.435   2.288 -0.5841 -1.6127  2.6502
  417UNL     CL 2201   3.246   1.283   0.770  0.7210  0.3046  0.0640
  417UNL      C 2202   3.143   1.304   0.630  0.0569 -0.3589  0.2216
  417UNL    CL1 2203   3.216   1.431   0.535  0.1298  0.0462 -0.1211
  417UNL    CL2 2204   3.100   1.150   0.543  0.0513 -0.2060 -0.0864
  417UNL      H 2205   3.049   1.342   0.671  0.7008  0.7331  0.7272
  418UNL     CL 2206   1.747   4.114   2.920 -0.0335  0.0226  0.1624
  418UNL      C 2207   1.792   4.070   2.752  0.3558  0.7998 -0.2083
  418UNL    CL1 2208   1.793   4.223   2.651 -0.6117  0.1571 -0.3184
  418UNL    CL2 2209   1.961   4.004   2.745  0.1552 -0.6799 -0.0239
  418UNL      H 2210   1.719   4.001   2.709 -0.5953 -0.2229  2.7640
  419UNL     CL 2211   1.050   0.224   2.731  0.1485  0.1248 -0.1702
  419UNL      C 2212   1.157   0.200   2.581 -0.2379  0.6317  0.0643
  419UNL    CL1 2213   1.271   0.060   2.612 -0.3109  0.1495 -0.1152
  419UNL    CL2 2214   1.062   0.158   2.442 -0.0803 -0.2738  0.0798
  419UNL      H 2215   1.225   0.283   2.559 -0.0830  0.1964 -1.1488
  420UNL     CL 2216   2.975   3.131   2.910 -0.1358  0.1444  0.2098
  420UNL      C 2217   3.128   3.148   2.803  0.4078  0.9317 -0.5897
  420UNL    CL1 2218   3.109   3.080   2.639  0.3480  0.2028  0.5006
  420UNL    CL2 2219   3.155   3.330   2.777 -0.2654  0.1131 -0.2082
  420UNL      H 2220   3.205   3.101   2.865  0.3713  1.6736  0.0331
  421UNL     CL 2221   0.513   0.194   0.391 -0.2671  0.3734  0.1302
  421UNL      C 2222   0.601   0.339   0.448  0.3612  0.4645  0.4695
  421UNL    CL1 2223   0.763   0.312   0.515 -0.2485 -0.6107 -0.0888
  421UNL    CL2 2224   0.607   0.447   0.303 -0.2082  0.1654  0.0108
  421UNL      H 2225   0.539   0.388   0.523  0.8931  0.3362  1.0063
  422UNL     CL 2226   1.262   1.136   3.065 -0.0807  0.2970  0.2974
  422UNL      C 2227   1.249   0.990   3.175 -0.5092  0.0108 -0.0093
  422UNL    CL1 2228   1.088   0.981   3.256 -0.1693  0.1541 -0.1148
  422UNL    CL2 2229   1.290   0.844   3.080 -0.1686 -0.2554  0.1058
  422UNL      H 2230   1.322   0.998   3.256 -0.5093  1.4542 -0.1386
  423UNL     CL 2231   0.205   3.153   2.946 -0.1543  0.4975 -0.1091
  423UNL      C 2232   0.351   3.167   3.041 -0.0910  0.0787  0.2684
  423UNL    CL1 2233   0.352   3.041   3.174  0.1115 -0.3392 -0.1746
  423UNL    CL2 2234   0.491   3.130   2.932 -0.4144 -0.0104 -0.4446
  423UNL      H 2235   0.367   3.268   3.081 -0.9512  1.1786 -2.0104
  424UNL     CL 2236   1.315   1.772   0.670  0.0300  0.1070  0.1165
  424UNL      C 2237   1.235   1.823   0.527  0.2418  1.1954  0.1372
  424UNL    CL1 2238   1.108   1.714   0.478  0.4392 -0.0993  0.8839
  424UNL    CL2 2239   1.171   1.986   0.544  0.0603 -0.2567  0.1711
  424UNL      H 2240   1.307   1.823   0.444  0.7312 -0.5269  0.5300
  425UNL     CL 2241   3.316   1.778   0.311  0.2061  0.1615 -0.1006
  425UNL      C 2242   3.219   1.793   0.161  0.7767  0.4735 -0.2478
  425UNL    CL1 2243   3.044   1.781   0.212 -0.1582 -0.3216 -0.1932
  425UNL    CL2 2244   3.251   1.946   0.078 -0.3558 -0.0602 -0.2370
  425UNL      H 2245   3.246   1.710   0.096  1.4948 -0.1989  0.8712
  426UNL     CL 2246   0.826   1.627   1.792 -0.3781 -0.3194  0.0265
  426UNL      C 2247   0.832   1.546   1.633  0.6532 -0.4429  0.0530
  426UNL    CL1 2248   0.955   1.604   1.523  0.3298 -0.3320  0.0821
  426UNL    CL2 2249   0.848   1.372   1.675 -0.1033  0.0692  0.0994
  426UNL      H 2250   0.738   1.549   1.577  1.0170  0.6304 -0.5179
  427UNL     CL 2251   0.016   1.256   2.622 -0.1639  0.0948 -0.3668
  427UNL      C 2252  -0.049   1.121   2.514 -0.1223 -0.6338  0.5030
  427UNL    CL1 2253  -0.227   1.139   2.476  0.5018  0.2801  0.0683
  427UNL    CL2 2254   0.061   1.121   2.360 -0.0647  0.1055  0.0523
  427UNL      H 2255  -0.040   1.026   2.567  1.6872  0.0049  1.4028
  428UNL     CL 2256   1.445   1.335   1.066 -0.0359 -0.2620  0.2564
  428UNL      C 2257   1.360   1.439   0.934  0.2803 -0.1968 -1.1869
  428UNL    CL1 2258   1.430   1.381   0.783  0.1304 -0.3394 -0.0698
  428UNL    CL2 2259   1.183   1.416   0.946  0.1238 -0.2273 -0.1094
  428UNL      H 2260   1.375   1.546   0.950 -0.7217 -0.3497  1.2284
  429UNL     CL 2261   2.910   2.775   0.081 -0.0754 -0.4676  0.5232
  429UNL      C 2262   2.805   2.921   0.099  0.4682 -0.0931  0.2316
  429UNL    CL1 2263   2.882   3.070   0.034  0.1538 -0.2525 -0.1003
  429UNL    CL2 2264   2.644   2.898   0.013  0.1909  0.1577 -0.0261
  429UNL      H 2265   2.783   2.937   0.205 -0.8435 -2.0409  0.2986
  430UNL     CL 2266   3.192   0.031   3.990  0.2931 -0.5328  0.0445
  430UNL      C 2267   3.169  -0.138   3.976  0.1435 -0.0343  0.6109
  430UNL    CL1 2268   3.220  -0.186   3.803 -0.1812  0.2087  0.2113
  430UNL    CL2 2269   3.277  -0.211   4.103  0.4103  0.3344  0.2400
  430UNL      H 2270   3.062  -0.160   3.990  0.3529 -0.3052  1.8896
  431UNL     CL 2271   0.033   0.551   0.973  0.1729 -0.0751 -0.0546
  431UNL      C 2272   0.040   0.707   0.881  0.0200  0.3019  0.0757
  431UNL    CL1 2273  -0.063   0.832   0.971 -0.3513 -0.0376  0.4334
  431UNL    CL2 2274   0.207   0.767   0.873  0.2366  0.6059 -0.0342
  431UNL      H 2275   0.008   0.685   0.778  0.7431 -0.6116  0.0329
  432UNL     CL 2276   3.957   3.513   1.223  0.1620 -0.1607 -0.0331
  432UNL      C 2277   3.909   3.593   1.077  0.0082 -0.5069  0.4351
  432UNL    CL1 2278   3.732   3.590   1.056  0.2425 -0.0684  0.0425
  432UNL    CL2 2279   3.961   3.765   1.062 -0.2980 -0.1132 -0.4698
  432UNL      H 2280   3.938   3.533   0.990 -2.5705 -1.3424  0.0815
  433UNL     CL 2281   3.472   2.401   0.111  0.1230 -0.4279 -0.0746
  433UNL      C 2282   3.390   2.297  -0.012  0.1694 -0.0062 -1.2168
  433UNL    CL1 2283   3.233   2.374  -0.050 -0.0330  0.2590 -0.1096
  433UNL    CL2 2284   3.488   2.286  -0.153  0.1492 -0.0195 -0.1009
  433UNL      H 2285   3.382   2.195   0.029 -0.1357  0.2251 -0.7008
  434UNL     CL 2286   0.686   2.199   0.577  0.0075 -0.1680 -0.1419
  434UNL      C 2287   0.810   2.331   0.593 -0.6306 -0.1903  0.4442
  434UNL    CL1 2288   0.936   2.282   0.719 -0.3438 -0.4486  0.3137
  434UNL    CL2 2289   0.900   2.351   0.439  0.0476 -0.1893 -0.1563
  434UNL      H 2290   0.763   2.428   0.611 -0.6975  0.3049 -2.0288
  435UNL     CL 2291   1.615   2.782   1.124 -0.1170 -0.2959 -0.0684
  435UNL      C 2292   1.643   2.890   0.986  0.3289 -0.6324  0.3216
  435UNL    CL1 2293   1.696   2.803   0.832  0.3597  0.1755 -0.4316
  435UNL    CL2 2294   1.488   2.994   0.953 -0.3084  0.3179 -0.5629
  435UNL      H 2295   1.714   2.970   1.011 -1.1659  0.2963  1.8439
  436UNL     CL 2296   2.168   1.534   0.460 -0.3846  0.3416  0.0177
  436UNL      C 2297   2.280   1.404   0.522  0.2013  0.4496  1.0770
  436UNL    CL1 2298   2.437   1.463   0.593  0.3929 -0.2119 -0.4381
  436UNL    CL2 2299   2.191   1.293   0.650 -0.0891  0.1488  0.1550
  436UNL      H 2300   2.305   1.347   0.432  1.0314  1.8668  0.3672
  437UNL     CL 2301   3.141   2.073   1.526  0.2149 -0.2902 -0.5394
  437UNL      C 2302   3.280   1.960   1.547  0.3140  0.3965 -0.5271
  437UNL    CL1 2303   3.256   1.804   1.460  0.1653  0.0652 -0.0240
  437UNL    CL2 2304   3.424   2.035   1.478 -0.3891 -0.0229 -0.6902
  437UNL      H 2305   3.304   1.937   1.652  0.6836 -0.8548 -0.8690
  438UNL     CL 2306   3.362   0.110   3.076  0.0936  0.3917  0.2622
  438UNL      C 2307   3.463   0.250   3.108  0.5350 -0.1302  0.5428
  438UNL    CL1 2308   3.361   0.382   3.179  0.1415  0.0242  0.0830
  438UNL    CL2 2309   3.586   0.202   3.220 -0.4070 -0.2007 -0.2680
  438UNL      H 2310   3.510   0.284   3.015 -0.1821 -1.3004 -0.2644
  439UNL     CL 2311   2.597   1.955   3.573 -0.0675 -0.6854  0.2507
  439UNL      C 2312   2.487   1.880   3.700  0.3078 -0.1152 -0.5382
  439UNL    CL1 2313   2.490   1.967   3.858  0.0076  0.3725  0.0400
  439UNL    CL2 2314   2.313   1.869   3.627 -0.1391  0.0371 -0.1714
  439UNL      H 2315   2.517   1.777   3.716 -0.0185 -0.1449 -0.0926
  440UNL     CL 2316   3.935   0.327   4.005 -0.2955 -0.4833  0.1154
  440UNL      C 2317   3.872   0.358   4.170 -0.0076 -0.4820  0.0193
  440UNL    CL1 2318   3.978   0.294   4.291 -0.1025  0.0601  0.0259
  440UNL    CL2 2319   3.852   0.538   4.205 -0.2918 -0.4378 -0.1590
  440UNL      H 2320   3.778   0.305   4.185 -0.0564 -0.2565  0.5492
  441UNL     CL 2321   1.150   3.920   1.831 -0.5175 -0.0072 -0.3755
  441UNL      C 2322   1.205   3.893   2.006 -0.7508 -0.1003 -0.7255
  441UNL    CL1 2323   1.062   3.904   2.102  0.0946  0.1665 -0.4129
  441UNL    CL2 2324   1.280   3.732   2.030  0.0422 -0.2237  0.1133
  441UNL      H 2325   1.265   3.979   2.039 -0.6526 -0.8028  1.0452
  442UNL     CL 2326   3.127   3.370   3.256 -0.0167 -0.1764 -0.2398
  442UNL      C 2327   2.951   3.308   3.219 -0.1304  0.1029  0.0095
  442UNL    CL1 2328   2.839   3.313   3.360 -0.4268  0.1415 -0.0230
  442UNL    CL2 2329   2.889   3.412   3.092  0.1141  0.0740 -0.3545
  442UNL      H 2330   2.959   3.205   3.183  0.1417  0.3773 -0.7468
  443UNL     CL 2331   1.241   3.848   1.131  0.5144  0.2676  0.3375
  443UNL      C 2332   1.411   3.782   1.089  0.0108 -0.5109  0.4282
  443UNL    CL1 2333   1.530   3.800   1.225  0.0793 -0.1456 -0.5087
  443UNL    CL2 2334   1.399   3.603   1.049  0.0065 -0.0422  0.2164
  443UNL      H 2335   1.447   3.836   1.000  0.1436  0.1425  0.8716
  444UNL     CL 2336   1.805   1.861   1.171  0.3061 -0.2022 -0.1247
  444UNL      C 2337   1.862   1.695   1.234  0.3003  0.0173 -0.5341
  444UNL    CL1 2338   2.033   1.678   1.184 -0.1332 -0.3891  0.6088
  444UNL    CL2 2339   1.849   1.674   1.406 -0.0378 -0.4505  0.3544
  444UNL      H 2340   1.798   1.624   1.181 -1.7063  0.7302  0.8137
  445UNL     CL 2341   2.547   0.799   3.662  0.1107 -0.0899  0.2371
  445UNL      C 2342   2.405   0.851   3.758 -0.1959 -0.2614  0.2858
  445UNL    CL1 2343   2.394   1.027   3.774 -0.1180 -0.0160 -0.0175
  445UNL    CL2 2344   2.252   0.784   3.683 -0.4003  0.5550  0.1480
  445UNL      H 2345   2.429   0.809   3.856  0.7104  0.3290  0.3255
  446UNL     CL 2346   2.767   1.254   2.011 -0.0257  0.2958  0.1385
  446UNL      C 2347   2.644   1.367   1.934  0.0759 -0.1198  0.1331
  446UNL    CL1 2348   2.564   1.454   2.079  0.0419  0.0344 -0.0942
  446UNL    CL2 2349   2.720   1.490   1.828  0.0739  0.0155 -0.2617
  446UNL      H 2350   2.570   1.316   1.871  0.1719  2.7827 -2.5697
  447UNL     CL 2351   1.789   3.803   3.476  0.1765  0.2512  0.1413
  447UNL      C 2352   1.703   3.753   3.326 -0.8101  0.0175 -0.8587
  447UNL    CL1 2353   1.728   3.880   3.184 -0.0381  0.3757 -0.2243
  447UNL    CL2 2354   1.781   3.593   3.276 -0.3052 -0.0224 -0.0911
  447UNL      H 2355   1.595   3.745   3.342 -0.5442 -1.6338  0.3113
  448UNL     CL 2356   3.174   2.113   0.390  0.4543 -0.0904  0.3970
  448UNL      C 2357   3.326   2.121   0.484  0.3289 -0.5762 -0.5674
  448UNL    CL1 2358   3.474   2.088   0.387  0.0708 -0.1930 -0.1617
  448UNL    CL2 2359   3.356   2.286   0.552 -0.1982  0.1822  0.2186
  448UNL      H 2360   3.320   2.050   0.568 -1.3744  2.0482  1.6966
  449UNL     CL 2361   3.929   3.168   3.615 -0.1829  0.4909 -0.0013
  449UNL      C 2362   3.947   3.348   3.610 -0.4976  0.4453  0.0825
  449UNL    CL1 2363   4.123   3.377   3.594 -0.1285 -0.4022  0.3677
  449UNL    CL2 2364   3.865   3.405   3.463 -0.4578 -0.0490  0.1901
  449UNL      H 2365   3.905   3.405   3.693 -0.9670  1.5499 -0.8893
  450UNL     CL 2366   0.974   0.580   2.552  0.3916  0.1568  0.2228
  450UNL      C 2367   0.916   0.599   2.725  0.3817  0.0056  0.2612
  450UNL    CL1 2368   1.040   0.690   2.812  0.4862  0.0690 -0.2418
  450UNL    CL2 2369   0.752   0.675   2.727  0.1260  0.4285  0.4257
  450UNL      H 2370   0.908   0.502   2.775 -1.8024  0.4261  0.8769
  451UNL     CL 2371   2.837   1.724   1.432 -0.2390  0.2343 -0.2348
  451UNL      C 2372   2.661   1.754   1.420 -0.4313  0.0687  1.0285
  451UNL    CL1 2373   2.588   1.641   1.306  0.0682  0.5281  0.4217
  451UNL    CL2 2374   2.583   1.736   1.577  0.2747  0.3163  0.2588
  451UNL      H 2375   2.645   1.859   1.395 -0.3316 -0.3378 -0.8991
  452UNL     CL 2376   2.115   0.772   0.170  0.0862 -0.0452 -0.3795
  452UNL      C 2377   2.057   0.882   0.041 -0.4753  0.0322  0.0227
  452UNL    CL1 2378   2.180   0.900  -0.095  0.4238  0.0418  0.1255
  452UNL    CL2 2379   1.902   0.818  -0.011  0.0667  0.1449 -0.0919
  452UNL      H 2380   2.037   0.984   0.076 -1.5102 -0.1484 -0.0155
  453UNL     CL 2381   3.016   2.203   2.404  0.1629 -0.4704  0.0848
  453UNL      C 2382   2.932   2.325   2.506 -0.0067  0.0846 -0.5894
  453UNL    CL1 2383   3.008   2.333   2.673 -0.1511 -0.2076  0.0087
  453UNL    CL2 2384   2.956   2.484   2.425  0.2613  0.0565 -0.1006
  453UNL      H 2385   2.827   2.294   2.512  0.0408  0.0178 -0.1355
  454UNL     CL 2386   0.021   2.955   2.221  0.1725 -0.2428  0.1146
  454UNL      C 2387  -0.059   2.795   2.194 -0.7212  0.1528 -0.6573
  454UNL    CL1 2388  -0.135   2.746   2.345  0.3178  0.0180  0.0353
  454UNL    CL2 2389  -0.186   2.815   2.067  0.1099 -0.0904 -0.1565
  454UNL      H 2390   0.016   2.720   2.168 -1.2695 -0.1618 -1.3602
  455UNL     CL 2391   0.982   1.415   0.050 -0.2174 -0.0095  0.2600
  455UNL      C 2392   1.134   1.498  -0.023  0.1321  0.7441 -0.1733
  455UNL    CL1 2393   1.284   1.470   0.084  0.1015 -0.0549  0.1422
  455UNL    CL2 2394   1.151   1.419  -0.187 -0.0944  0.0579 -0.3686
  455UNL      H 2395   1.122   1.606  -0.035  2.4273  0.8443 -2.1568
  456UNL     CL 2396   3.607   1.765   0.135 -0.0890 -0.0364  0.1272
  456UNL      C 2397   3.734   1.663   0.055  0.2793 -0.1769  0.2679
  456UNL    CL1 2398   3.807   1.755  -0.080  0.0979 -0.2439 -0.1074
  456UNL    CL2 2399   3.849   1.607   0.179 -0.0096 -0.4927 -0.0787
  456UNL      H 2400   3.677   1.582   0.007 -1.7772  0.1600  1.9528
  457UNL     CL 2401   1.179   1.412   1.795 -0.3771 -0.0733  0.0314
  457UNL      C 2402   1.211   1.267   1.686  0.0197 -0.3500  0.4477
  457UNL    CL1 2403   1.354   1.288   1.583 -0.1851 -0.2735 -0.2668
  457UNL    CL2 2404   1.228   1.112   1.779 -0.1009  0.2737  0.1113
  457UNL      H 2405   1.122   1.260   1.623  0.8149  1.9850 -1.0478
  458UNL     CL 2406   3.280   2.947   1.229 -0.2187 -0.1107 -0.1425
  458UNL      C 2407   3.117   2.970   1.299  0.5923 -0.2513 -0.1029
  458UNL    CL1 2408   3.102   3.151   1.345  0.7045  0.1758 -0.1076
  458UNL    CL2 2409   2.990   2.954   1.176 -0.4916 -0.4918  0.2922
  458UNL      H 2410   3.103   2.906   1.386 -0.6623  2.0301  1.4833
  459UNL     CL 2411   4.107   0.740   1.394  0.2909  0.0577  0.0338
  459UNL      C 2412   3.975   0.624   1.384  0.4282 -0.3976  0.6596
  459UNL    CL1 2413   3.821   0.705   1.328  0.0054  0.0471  0.2508
  459UNL    CL2 2414   4.015   0.483   1.278  0.1682 -0.2128 -0.0896
  459UNL      H 2415   3.948   0.581   1.481 -0.5446  2.5847  1.8172
  460UNL     CL 2416   0.988   0.046   3.007 -0.0979 -0.2058 -0.0332
  460UNL      C 2417   0.924   0.092   3.175  0.2230  0.1741 -0.0007
  460UNL    CL1 2418   0.956  -0.051   3.287 -0.0032  0.1143  0.1898
  460UNL    CL2 2419   0.977   0.252   3.233  0.3567 -0.0393  0.0269
  460UNL      H 2420   0.815   0.099   3.172  0.2373  1.7001  1.3832
  461UNL     CL 2421   2.085   3.751   2.288 -0.4753  0.2947  0.1586
  461UNL      C 2422   2.180   3.813   2.154 -0.4696  0.2504 -0.3372
  461UNL    CL1 2423   2.086   3.791   2.002  0.2725 -0.6080  0.1384
  461UNL    CL2 2424   2.236   3.987   2.161  0.1757 -0.0048 -0.0114
  461UNL      H 2425   2.265   3.745   2.160  0.0077  0.9644  1.9724
  462UNL     CL 2426   0.260   1.301   3.470  0.0137 -0.0350  0.2552
  462UNL      C 2427   0.200   1.461   3.519  0.6996  0.1128  0.1571
  462UNL    CL1 2428   0.017   1.470   3.533 -0.2944  0.3219 -0.4372
  462UNL    CL2 2429   0.272   1.524   3.676  0.0088 -0.0383 -0.1366
  462UNL      H 2430   0.232   1.536   3.446 -0.1233  0.3798  0.0574
  463UNL     CL 2431   0.414   1.493   1.934 -0.0198 -0.2899 -0.0163
  463UNL      C 2432   0.452   1.325   1.863 -0.6250  0.6080  0.1330
  463UNL    CL1 2433   0.491   1.338   1.687 -0.2293 -0.1259 -0.1510
  463UNL    CL2 2434   0.598   1.257   1.957  0.0277 -0.0795 -0.1448
  463UNL      H 2435   0.365   1.262   1.883  0.6527 -1.8738 -1.5760
  464UNL     CL 2436   1.213   0.407   0.679  0.0382 -0.3242 -0.3291
  464UNL      C 2437   1.111   0.471   0.808 -0.7948  0.7829  0.5668
  464UNL    CL1 2438   1.193   0.597   0.911  0.4042 -0.4264 -0.5103
  464UNL    CL2 2439   0.971   0.545   0.730  0.0986 -0.2198  0.0378
  464UNL      H 2440   1.078   0.386   0.869  0.3174 -2.5499 -3.1053
  465UNL     CL 2441   2.599   0.942   1.839  0.0609 -0.0587 -0.2908
  465UNL      C 2442   2.639   0.804   1.945 -0.7440  0.0731  0.6926
  465UNL    CL1 2443   2.782   0.841   2.052  0.1720 -0.3291 -0.3269
  465UNL    CL2 2444   2.489   0.771   2.035  0.1498 -0.2734  0.1068
  465UNL      H 2445   2.667   0.719   1.883  0.7744 -0.1325  1.6160
  466UNL     CL 2446   1.165   0.548   2.272 -0.3726 -0.1085  0.1896
  466UNL      C 2447   1.149   0.447   2.120 -0.7495 -0.0452  0.1682
  466UNL    CL1 2448   1.306   0.483   2.031  0.1235 -0.1048 -0.0516
  466UNL    CL2 2449   1.138   0.272   2.143  0.1157  0.2597 -0.1951
  466UNL      H 2450   1.072   0.490   2.054 -0.2885 -1.7011 -1.5233
  467UNL     CL 2451   2.563   3.449   3.047 -0.2613 -0.3419 -0.1740
  467UNL      C 2452   2.489   3.311   3.140  0.5681  0.0002 -0.1186
  467UNL    CL1 2453   2.430   3.375   3.304 -0.1561 -0.4538  0.1068
  467UNL    CL2 2454   2.343   3.246   3.054  0.2830  0.4365 -0.2553
  467UNL      H 2455   2.561   3.231   3.163  0.4886 -0.3749 -1.1253
  468UNL     CL 2456   0.111   1.355   4.071 -0.0603  0.1256 -0.1556
  468UNL      C 2457   0.018   1.516   4.100 -0.2371  0.4102 -0.1940
  468UNL    CL1 2458   0.072   1.623   4.243  0.1729  0.4774 -0.3291
  468UNL    CL2 2459   0.017   1.609   3.946  0.1233  0.5401  0.3972
  468UNL      H 2460  -0.090   1.503   4.106 -0.6662  2.0054 -2.8126
  469UNL     CL 2461   2.186   2.183   4.010 -0.2775 -0.5756  0.1228
  469UNL      C 2462   2.019   2.239   3.981 -0.1365 -0.2607  0.2815
  469UNL    CL1 2463   1.922   2.113   3.904 -0.2255  0.2204  0.4453
  469UNL    CL2 2464   1.938   2.275   4.138 -0.1923 -0.0618  0.5257
  469UNL      H 2465   2.023   2.336   3.930  2.4231  0.6692  2.0422
  470UNL     CL 2466   3.213   1.179   2.655  0.4071  0.3214  0.1500
  470UNL      C 2467   3.324   1.076   2.545  0.0521 -0.2567 -0.1566
  470UNL    CL1 2468   3.359   1.159   2.391 -0.1142  0.0593 -0.2767
  470UNL    CL2 2469   3.475   1.015   2.624 -0.0323 -0.1393  0.2486
  470UNL      H 2470   3.272   0.983   2.522  0.9130 -0.9034  0.4311
  471UNL     CL 2471   0.355   1.913   3.782 -0.1896  0.1192  0.1696
  471UNL      C 2472   0.198   1.971   3.866 -0.2299  0.3670 -0.4070
  471UNL    CL1 2473   0.214   2.010   4.039 -0.0785  0.3473  0.3820
  471UNL    CL2 2474   0.142   2.116   3.769  0.1628 -0.1482  0.2970
  471UNL      H 2475   0.120   1.895   3.852 -1.0468  0.9640  0.7497
  472UNL     CL 2476   2.363   0.009   3.826  0.3299 -0.5261  0.2092
  472UNL      C 2477   2.243  -0.114   3.895  0.6100  0.0293  0.1107
  472UNL    CL1 2478   2.318  -0.233   4.003 -0.1193 -0.2017 -0.1033
  472UNL    CL2 2479   2.118  -0.023   3.978 -0.3905  0.2194 -0.8189
  472UNL      H 2480   2.203  -0.179   3.816  0.8847  1.5122 -1.3069
  473UNL     CL 2481   0.428   3.285   3.861  0.0893 -0.5542  0.4598
  473UNL      C 2482   0.603   3.326   3.864 -0.1842 -0.3240  0.8111
  473UNL    CL1 2483   0.635   3.419   4.006 -0.1247  0.3649  0.5777
  473UNL    CL2 2484   0.681   3.165   3.875  0.2040 -0.0659 -0.4030
  473UNL      H 2485   0.634   3.372   3.769  2.1822 -3.4181 -0.1117
  474UNL     CL 2486   2.947   1.085   2.866  0.0061 -0.0402 -0.1349
  474UNL      C 2487   2.804   1.193   2.856 -0.0103 -0.0904 -0.0777
  474UNL    CL1 2488   2.698   1.163   3.005  0.3613  0.1685  0.2279
  474UNL    CL2 2489   2.859   1.363   2.852  0.0805  0.2827 -0.2091
  474UNL      H 2490   2.750   1.155   2.769  0.0536 -3.1286  1.0899
  475UNL     CL 2491   1.725   2.882   4.008 -0.2614  0.2431  0.1379
  475UNL      C 2492   1.728   2.737   3.913 -0.0610  0.8395  0.6979
  475UNL    CL1 2493   1.802   2.764   3.741 -0.0519 -0.0613  0.1725
  475UNL    CL2 2494   1.821   2.608   3.999  0.8163 -0.0794 -0.4229
  475UNL      H 2495   1.625   2.706   3.892 -0.0209 -0.6043  2.3993
  476UNL     CL 2496   0.547   1.097   3.585 -0.2033  0.1059  0.3538
  476UNL      C 2497   0.569   0.920   3.544  0.6773 -0.2860  0.0581
  476UNL    CL1 2498   0.461   0.861   3.420  0.3604  0.1334 -0.3032
  476UNL    CL2 2499   0.743   0.877   3.502  0.0942  0.3784  0.3160
  476UNL      H 2500   0.539   0.878   3.640  4.1893 -2.7641  0.2500
  477UNL     CL 2501   2.358   2.140   3.411  0.1100 -0.0080 -0.2811
  477UNL      C 2502   2.441   2.271   3.497 -0.1389 -0.5109  0.1171
  477UNL    CL1 2503   2.514   2.401   3.391 -0.0791  0.2397 -0.0070
  477UNL    CL2 2504   2.339   2.336   3.626  0.2255 -0.1406  0.1721
  477UNL      H 2505   2.521   2.220   3.553  0.0471  1.3689  1.6749
  478UNL     CL 2506   2.513   2.234   3.059 -0.4522 -0.0884  0.2061
  478UNL      C 2507   2.523   2.391   2.965  0.1894 -0.0883 -0.2629
  478UNL    CL1 2508   2.447   2.521   3.064  0.1869  0.2010  0.7242
  478UNL    CL2 2509   2.698   2.434   2.924 -0.1595  0.0555  0.4425
  478UNL      H 2510   2.472   2.389   2.868  0.8132  0.0405 -0.6031
  479UNL     CL 2511   0.734   3.678   3.189 -0.1642 -0.2177 -0.0737
  479UNL      C 2512   0.572   3.736   3.138 -0.0909  0.0083 -0.2085
  479UNL    CL1 2513   0.533   3.892   3.229 -0.0224  0.2192  0.4698
  479UNL    CL2 2514   0.588   3.773   2.964 -0.0873  0.0019 -0.1423
  479UNL      H 2515   0.500   3.661   3.173  2.0521 -0.7143  3.1531
  480UNL     CL 2516   0.310   0.766   0.118 -0.2290  0.4178 -0.3563
  480UNL      C 2517   0.320   0.617   0.023  0.2990  0.1301 -0.2630
  480UNL    CL1 2518   0.485   0.559  -0.006  0.2219 -0.2647 -0.0277
  480UNL    CL2 2519   0.218   0.483   0.097  0.2594  0.1865  0.3115
  480UNL      H 2520   0.286   0.636  -0.079  0.2882 -0.1854 -0.3175
  481UNL     CL 2521   0.892   4.106   3.685  0.0737  0.1709  0.5080
  481UNL      C 2522   0.750   4.103   3.570 -0.0744  1.1773  0.3928
  481UNL    CL1 2523   0.604   4.016   3.642  0.0962 -0.1877 -0.1452
  481UNL    CL2 2524   0.703   4.258   3.499 -0.2521 -0.4837 -0.1240
  481UNL      H 2525   0.781   4.037   3.488 -1.8626  0.7590  0.0192
  482UNL     CL 2526   0.834   2.860   1.840 -0.4926 -0.1360 -0.0567
  482UNL      C 2527   0.743   2.713   1.780  0.0309 -0.0126 -0.0380
  482UNL    CL1 2528   0.705   2.596   1.925 -0.0605  0.0538  0.2092
  482UNL    CL2 2529   0.590   2.764   1.693 -0.0753 -0.0465  0.5315
  482UNL      H 2530   0.804   2.654   1.710  1.2969 -1.1704  1.9269
  483UNL     CL 2531   4.097   2.392   3.042  0.1891 -0.0719  0.2016
  483UNL      C 2532   3.967   2.463   3.139  0.6728 -0.1238  0.5333
  483UNL    CL1 2533   3.853   2.555   3.032  0.0978  0.2896  0.3893
  483UNL    CL2 2534   3.879   2.332   3.221  0.6191  0.0127 -0.5550
  483UNL      H 2535   4.007   2.543   3.201 -0.8168  2.7998 -2.0478
  484UNL     CL 2536   2.615   1.122   2.323 -0.3672 -0.1962  0.3052
  484UNL      C 2537   2.769   1.215   2.369  0.6065 -0.3060 -0.0198
  484UNL    CL1 2538   2.719   1.378   2.414 -0.0599  0.1887  0.0196
  484UNL    CL2 2539   2.839   1.135   2.526  0.1848 -0.1929 -0.0132
  484UNL      H 2540   2.851   1.209   2.296 -0.4505 -0.7419 -1.2175
  485UNL     CL 2541   0.498   2.435   3.114  0.0083 -0.2354  0.3789
  485UNL      C 2542   0.464   2.508   3.278 -0.3714  0.1871 -0.1168
  485UNL    CL1 2543   0.597   2.454   3.383 -0.0604 -0.0059  0.2929
  485UNL    CL2 2544   0.464   2.686   3.270 -0.1593 -0.4773 -0.0720
  485UNL      H 2545   0.368   2.465   3.307 -0.9701  1.0506 -0.7783
  486UNL     CL 2546   1.312   0.641   1.290 -0.0431  0.0508  0.2929
  486UNL      C 2547   1.284   0.819   1.250 -0.0098  0.3162 -0.1885
  486UNL    CL1 2548   1.113   0.832   1.169  0.0297 -0.2096  0.1403
  486UNL    CL2 2549   1.299   0.914   1.408  0.0561 -0.1487  0.0891
  486UNL      H 2550   1.362   0.852   1.181  0.9777 -2.4726 -0.5228
  487UNL     CL 2551   1.310   0.352   3.832 -0.0075  0.0290  0.3727
  487UNL      C 2552   1.323   0.222   3.728 -1.0369  0.1999  0.2381
  487UNL    CL1 2553   1.246   0.069   3.790 -0.0076 -0.1636  0.3238
  487UNL    CL2 2554   1.247   0.259   3.571 -0.1988 -0.0742 -0.2785
  487UNL      H 2555   1.430   0.200   3.719 -0.9044  0.7423  0.5084
  488UNL     CL 2556   1.798   2.652   0.501  0.1348  0.0875 -0.1028
  488UNL      C 2557   1.692   2.511   0.496  0.1213  0.4471  0.4244
  488UNL    CL1 2558   1.774   2.372   0.408  0.1852 -0.0384  0.1368
  488UNL    CL2 2559   1.646   2.459   0.668  0.0910  0.3218  0.1350
  488UNL      H 2560   1.600   2.544   0.447  0.0103 -0.8622 -0.2883
  489UNL     CL 2561   0.501   0.244   2.782  0.0548 -0.3766  0.2279
  489UNL      C 2562   0.569   0.304   2.944  0.7304  0.3823 -0.6264
  489UNL    CL1 2563   0.548   0.181   3.067  0.0733 -0.1378 -0.0946
  489UNL    CL2 2564   0.736   0.340   2.927 -0.7061 -0.3907 -0.5041
  489UNL      H 2565   0.518   0.398   2.965 -1.6567 -0.5329 -1.9381
  490UNL     CL 2566   0.378   2.656   0.331 -0.3882 -0.2750  0.2942
  490UNL      C 2567   0.357   2.570   0.489  0.1990 -0.6512  0.2830
  490UNL    CL1 2568   0.517   2.498   0.529 -0.2469  0.4601 -0.1573
  490UNL    CL2 2569   0.308   2.684   0.624 -0.1520  0.0142  0.2301
  490UNL      H 2570   0.279   2.495   0.477  1.6198 -2.0486 -0.6314
  491UNL     CL 2571   1.411   1.925   1.571 -0.0769  0.0118  0.0364
  491UNL      C 2572   1.428   1.888   1.747  0.5201 -0.1519 -0.1819
  491UNL    CL1 2573   1.517   2.009   1.847  0.1216  0.0319 -0.3514
  491UNL    CL2 2574   1.265   1.848   1.818  0.0742 -0.3929 -0.0016
  491UNL      H 2575   1.497   1.804   1.759  3.6977  2.5017  1.8480
  492UNL     CL 2576   0.736   2.873   3.353 -0.2336 -0.1995 -0.2318
  492UNL      C 2577   0.898   2.896   3.437 -0.2678  0.2175  0.0746
  492UNL    CL1 2578   0.942   3.072   3.429  0.0349  0.3408  0.3358
  492UNL    CL2 2579   0.874   2.840   3.609  0.1305  0.1006  0.1428
  492UNL      H 2580   0.968   2.834   3.381 -0.2166 -0.1287  0.5172
  493UNL     CL 2581   2.305   2.743   4.075  0.1140  0.2078  0.2141
  493UNL      C 2582   2.260   2.572   4.079 -0.7562 -0.2215 -1.2278
  493UNL    CL1 2583   2.133   2.568   4.212 -0.5221  0.0044 -0.0221
  493UNL    CL2 2584   2.204   2.528   3.914 -0.0815 -0.2039  0.3016
  493UNL      H 2585   2.345   2.509   4.106  0.4669  1.2959 -1.4179
  494UNL     CL 2586   1.355   2.258   3.010 -0.5296 -0.0044  0.0952
  494UNL      C 2587   1.532   2.249   3.073 -0.0145  1.0143  0.1390
  494UNL    CL1 2588   1.569   2.384   3.186  0.2309  0.0924 -0.2788
  494UNL    CL2 2589   1.554   2.102   3.168 -0.1949 -0.0562  0.0730
  494UNL      H 2590   1.605   2.255   2.991  0.2743  2.1558  0.4633
  495UNL     CL 2591   3.542   3.073   0.686  0.3730  0.4857  0.0633
  495UNL      C 2592   3.513   3.008   0.854 -0.5876 -0.6145 -0.1825
  495UNL    CL1 2593   3.394   3.123   0.939 -0.1742  0.2157  0.5012
  495UNL    CL2 2594   3.446   2.847   0.821  0.2057 -0.4038  0.4019
  495UNL      H 2595   3.607   2.994   0.907  0.4085  2.8374 -0.7824
  496UNL     CL 2596   1.536   2.812   0.312  0.4206 -0.2962 -0.0041
  496UNL      C 2597   1.439   2.928   0.418  0.2324  0.2419 -0.1450
  496UNL    CL1 2598   1.283   2.951   0.347  0.4147 -0.2461  0.1071
  496UNL    CL2 2599   1.427   2.874   0.593  0.3111 -0.0360 -0.0059
  496UNL      H 2600   1.494   3.022   0.433  1.4248 -0.6702  1.5132
  497UNL     CL 2601   0.620   2.038   2.362  0.0543 -0.2312 -0.1738
  497UNL      C 2602   0.765   2.035   2.468  0.0467  0.3557 -0.3579
  497UNL    CL1 2603   0.910   1.999   2.372 -0.0709  0.2477  0.2207
  497UNL    CL2 2604   0.787   2.193   2.551  0.1394  0.3121  0.5707
  497UNL      H 2605   0.750   1.961   2.547  0.5752  1.0819  0.4360
  498UNL     CL 2606   1.129   2.178   1.325  0.5648 -0.0246  0.1847
  498UNL      C 2607   1.221   2.186   1.171 -0.4248 -0.1135  0.0359
  498UNL    CL1 2608   1.198   2.348   1.099  0.4143 -0.1524  0.2709
  498UNL    CL2 2609   1.396   2.154   1.191 -0.1635  0.4403 -0.0672
  498UNL      H 2610   1.199   2.105   1.100  1.6624 -1.7789  1.1694
  499UNL     CL 2611   0.797   2.497   3.656  0.3887 -0.3111  0.2568
  499UNL      C 2612   0.816   2.317   3.680  0.3450  0.3313 -0.2110
  499UNL    CL1 2613   0.927   2.275   3.815  0.1019 -0.4705  0.2425
  499UNL    CL2 2614   0.655   2.231   3.689 -0.0535  0.0063 -0.0576
  499UNL      H 2615   0.873   2.286   3.591  0.9636 -0.3055  0.3957
  500UNL     CL 2616   0.031   2.643   0.180 -0.3475 -0.0187  0.5293
  500UNL      C 2617   0.073   2.783   0.075  0.3260  0.0269 -0.2733
  500UNL    CL1 2618   0.255   2.801   0.034  0.4702 -0.5647  0.3341
  500UNL    CL2 2619  -0.010   2.765  -0.080  0.4999 -0.2197  0.3109
  500UNL      H 2620   0.038   2.874   0.126 -1.3589 -0.8149  0.1391
  501UNL     CL 2621   3.541   2.072   1.818 -0.3629 -0.0349  0.0070
  501UNL      C 2622   3.488   2.053   1.994  0.0078 -0.1649 -0.7365
  501UNL    CL1 2623   3.340   1.958   1.998  0.0702  0.4509  0.2156
  501UNL    CL2 2624   3.605   1.959   2.080 -0.3051 -0.2951  0.1052
  501UNL      H 2625   3.480   2.151   2.042  0.0707  0.0808 -1.2222
   4.11677   4.11677   4.11677
