nspe_10 in water
 3226
    1H02      N    1   1.915   2.873   1.219  0.6983 -0.5685  0.2409
    1H02     C1    2   1.814   2.908   1.323 -0.6270 -0.7503 -0.4038
    1H02     C2    3   1.681   2.835   1.293  0.0183 -0.7021  1.2591
    1H02     C3    4   1.866   2.880   1.464 -0.4323  0.2247 -0.1249
    1H02     C4    5   1.942   2.980   1.533 -0.0255  0.3013 -0.0302
    1H02     C5    6   2.010   2.950   1.655  0.2575 -0.1785 -1.0388
    1H02     C6    7   1.990   2.823   1.717 -1.1659  0.3842 -0.8047
    1H02     C7    8   1.903   2.729   1.661 -0.7134 -0.0697 -0.1131
    1H02     C8    9   1.843   2.760   1.535 -0.3539  0.6424 -0.6372
    1H02     CA   10   1.850   2.890   1.084  0.2534  0.1609 -0.0464
    1H02      C   11   1.960   2.894   0.978 -0.5429 -1.0381 -0.0449
    1H02      O   12   2.070   2.843   1.004  0.1304  0.0596 -0.1269
    1H02     H1   13   1.947   2.778   1.235  1.1589 -0.5725 -0.6505
    1H02     H2   14   1.995   2.935   1.225 -0.4584  0.8899  1.4465
    1H02     H3   15   1.786   3.013   1.308 -1.6555 -0.3085  3.3804
    1H02     H4   16   1.634   2.872   1.202  0.4671 -0.1488  1.2493
    1H02     H5   17   1.609   2.856   1.373  0.9189 -1.6359  2.3669
    1H02     H6   18   1.703   2.730   1.269 -1.7503 -0.5656 -1.3232
    1H02     H7   19   1.961   3.077   1.489  1.3660  0.4736  0.8762
    1H02     H8   20   2.065   3.027   1.708  1.0753 -0.1995 -1.8266
    1H02     H9   21   2.040   2.793   1.808  1.1668  0.9118 -1.8536
    1H02    H10   22   1.880   2.640   1.720  1.3289  0.0952  1.0142
    1H02    H11   23   1.763   2.692   1.507 -0.6946 -0.9978  3.4834
    1H02    H12   24   1.781   2.975   1.090 -1.0128 -0.6983 -1.5156
    1H02    H13   25   1.782   2.807   1.059 -0.9682  1.5436 -1.5078
    2R02      N   26   1.934   2.957   0.863  0.5913 -0.6321  0.1756
    2R02     C1   27   2.037   3.018   0.771 -0.0199 -0.0782  0.3372
    2R02     H1   28   2.011   2.973   0.674 -1.0301 -1.7042  1.3218
    2R02     C2   29   2.011   3.171   0.763  0.2990 -0.5606  0.4063
    2R02     H2   30   1.984   3.225   0.854  2.9071 -0.0904  0.9865
    2R02     H3   31   1.936   3.194   0.686  0.0205  1.6998  1.2733
    2R02     H4   32   2.097   3.226   0.720 -0.1121 -0.6741 -0.5919
    2R02     C3   33   2.185   2.995   0.796  0.4099 -0.2582  0.2369
    2R02     C4   34   2.260   2.906   0.717 -0.0958  0.4045 -0.0469
    2R02     H5   35   2.214   2.842   0.642  0.1953  1.7298 -1.4311
    2R02     C5   36   2.400   2.899   0.730  0.3708  0.3079 -0.0357
    2R02     H6   37   2.460   2.835   0.666  1.0466 -0.3249  1.2078
    2R02     C6   38   2.463   2.966   0.831  0.1814 -0.7731 -0.2893
    2R02     H7   39   2.570   2.952   0.840  0.3626  0.1666 -0.8650
    2R02     C7   40   2.395   3.069   0.901  0.3126  0.9646  0.5015
    2R02     H8   41   2.449   3.136   0.967 -0.4552  0.2724  1.8899
    2R02     C8   42   2.258   3.083   0.882 -0.3549  0.0342  0.1535
    2R02     H9   43   2.211   3.172   0.922 -1.1389  1.4601 -3.5657
    2R02     CA   44   1.801   3.006   0.838  0.8526 -0.4463  0.0892
    2R02    H10   45   1.797   3.061   0.743 -0.5459  0.8810  0.8679
    2R02    H11   46   1.776   3.081   0.914 -1.1675 -2.5009  1.6032
    2R02      C   47   1.690   2.894   0.825  0.1326 -0.2079 -0.1806
    2R02      O   48   1.716   2.781   0.799 -0.9405 -0.2482  0.1145
    3R02      N   49   1.559   2.937   0.828 -0.0503 -0.2796  0.5507
    3R02     C1   50   1.463   2.895   0.734 -0.0665  0.6545 -0.4288
    3R02     H1   51   1.371   2.916   0.790 -0.6794 -3.1737  0.2246
    3R02     C2   52   1.475   2.987   0.608  0.3757  0.3427 -0.1624
    3R02     H2   53   1.577   3.005   0.571  0.2832 -0.1266 -0.6501
    3R02     H3   54   1.420   3.081   0.622 -2.6118 -1.1682 -0.9832
    3R02     H4   55   1.412   2.945   0.529  1.9065  0.2489 -1.3840
    3R02     C3   56   1.456   2.747   0.705 -1.0795 -0.4864  0.3716
    3R02     C4   57   1.423   2.656   0.807  0.3714  0.3267 -0.3254
    3R02     H5   58   1.395   2.688   0.907  1.9650 -0.9953  0.5961
    3R02     C5   59   1.404   2.522   0.782  0.5264 -0.5464  0.5138
    3R02     H6   60   1.356   2.459   0.857  0.6078 -0.8706  0.2932
    3R02     C6   61   1.445   2.463   0.662  0.3338 -0.1457  0.8339
    3R02     H7   62   1.421   2.360   0.638 -1.5847  0.3250  0.5749
    3R02     C7   63   1.492   2.539   0.560 -0.6903  0.2584  0.1140
    3R02     H8   64   1.527   2.485   0.472 -1.9499 -0.7655  0.2161
    3R02     C8   65   1.494   2.684   0.576 -0.1224 -0.6052 -0.7076
    3R02     H9   66   1.517   2.751   0.494 -1.7988  0.4896 -0.3405
    3R02     CA   67   1.543   3.080   0.861 -0.7020  0.1183  0.0408
    3R02    H10   68   1.448   3.117   0.821 -1.2083 -0.8941  0.2652
    3R02    H11   69   1.602   3.137   0.789  0.6281 -1.4015 -0.1242
    3R02      C   70   1.548   3.125   1.002  0.2990 -0.4388 -0.4387
    3R02      O   71   1.511   3.050   1.087  0.4692 -0.0876  0.3159
    4R02      N   72   1.582   3.257   1.037 -0.5814  0.2596  0.1592
    4R02     C1   73   1.613   3.360   0.928  0.0716 -0.4846  0.0169
    4R02     H1   74   1.660   3.305   0.846 -2.0281  0.9039 -2.2400
    4R02     C2   75   1.475   3.416   0.883  0.8860  0.5809 -0.5185
    4R02     H2   76   1.433   3.478   0.964 -0.3502 -0.3705 -0.4048
    4R02     H3   77   1.406   3.333   0.861  2.0904 -0.1291 -1.7459
    4R02     H4   78   1.486   3.484   0.797  2.1555  1.4805  0.3208
    4R02     C3   79   1.701   3.481   0.978  0.0425  0.0784  0.4651
    4R02     C4   80   1.782   3.478   1.097  0.2312  0.0530  0.2983
    4R02     H5   81   1.784   3.385   1.154  0.4023 -0.2452 -0.1860
    4R02     C5   82   1.861   3.589   1.136  0.1017  0.1075  0.2454
    4R02     H6   83   1.922   3.584   1.226 -0.2801  0.3917  0.5246
    4R02     C6   84   1.855   3.707   1.070  0.0402 -0.0767  0.8661
    4R02     H7   85   1.908   3.796   1.105  1.9144 -1.2218  1.0448
    4R02     C7   86   1.787   3.711   0.943 -0.2130 -1.0759 -0.0933
    4R02     H8   87   1.779   3.801   0.884 -0.2981  0.0747  1.5923
    4R02     C8   88   1.707   3.602   0.906  0.7081  0.5318  0.3628
    4R02     H9   89   1.642   3.606   0.820  0.9476 -0.6612  0.1007
    4R02     CA   90   1.515   3.330   1.149 -0.4415  0.5594 -0.2164
    4R02    H10   91   1.409   3.328   1.122 -0.6866 -1.2465  0.6881
    4R02    H11   92   1.542   3.436   1.150  1.1123  0.1930  0.4303
    4R02      C   93   1.526   3.265   1.300 -0.5291  0.2764  0.4435
    4R02      O   94   1.613   3.186   1.329 -0.2305  0.0137  0.0184
    5R02      N   95   1.435   3.305   1.400  0.0467 -0.4487 -0.0183
    5R02     C1   96   1.348   3.426   1.369 -0.0876  0.2397 -1.1863
    5R02     H1   97   1.288   3.409   1.279 -0.7556 -0.7880 -0.5675
    5R02     C2   98   1.259   3.468   1.489  0.2774  0.3028  0.2209
    5R02     H2   99   1.196   3.556   1.473 -1.0344 -0.3669  1.4518
    5R02     H3  100   1.323   3.495   1.573 -0.9373  1.0215  0.9374
    5R02     H4  101   1.192   3.387   1.521  2.2536 -0.8568  1.6637
    5R02     C3  102   1.436   3.546   1.336  0.8823  0.2267  0.3509
    5R02     C4  103   1.559   3.568   1.402 -0.2633 -0.2419 -0.2251
    5R02     H5  104   1.593   3.501   1.481 -1.6625 -2.5179 -1.4229
    5R02     C5  105   1.629   3.679   1.372  0.1052  0.1278  0.6401
    5R02     H6  106   1.723   3.691   1.424  0.3756 -2.8379  1.0299
    5R02     C6  107   1.576   3.774   1.281 -0.2934  0.2279  0.5891
    5R02     H7  108   1.642   3.855   1.253  1.0927 -1.6799 -2.0305
    5R02     C7  109   1.451   3.754   1.217 -0.6708  0.1429 -0.5386
    5R02     H8  110   1.414   3.829   1.148 -1.2925  1.4481  1.1490
    5R02     C8  111   1.384   3.637   1.234 -0.3336  0.0008 -0.3982
    5R02     H9  112   1.291   3.619   1.181  0.4825 -1.9896 -1.2579
    5R02     CA  113   1.441   3.257   1.546  0.2042  0.4771 -0.4946
    5R02    H10  114   1.335   3.255   1.573  0.3691  0.2652  0.1474
    5R02    H11  115   1.473   3.331   1.620 -1.2315  0.5032  0.1212
    5R02      C  116   1.471   3.103   1.569  0.0320  0.3477  0.2713
    5R02      O  117   1.453   3.017   1.488 -0.1114  0.0635  0.2610
    6R02      N  118   1.495   3.061   1.705 -0.6857 -0.7560  0.0475
    6R02     C1  119   1.514   3.162   1.810 -0.6813  0.4850  0.9668
    6R02     H1  120   1.558   3.250   1.762 -0.8943  1.3697  2.3194
    6R02     C2  121   1.367   3.207   1.844 -0.1514  0.1925  0.2192
    6R02     H2  122   1.364   3.315   1.863 -0.2692  0.6010 -1.8655
    6R02     H3  123   1.322   3.143   1.921  0.6734 -0.3936  0.2295
    6R02     H4  124   1.307   3.199   1.752 -3.5003 -0.0147  2.2693
    6R02     C3  125   1.603   3.114   1.930 -0.6028 -0.2667  0.1440
    6R02     C4  126   1.703   3.015   1.911  0.3302 -0.3518  0.3447
    6R02     H5  127   1.701   2.972   1.811 -1.0394 -0.1617  0.2637
    6R02     C5  128   1.774   2.967   2.014  0.2350  0.6396  0.0974
    6R02     H6  129   1.846   2.887   2.003  1.5255  1.4518  2.1244
    6R02     C6  130   1.764   3.032   2.136  0.5618 -0.0297  0.6428
    6R02     H7  131   1.829   3.010   2.220 -0.4048 -0.8969  1.1821
    6R02     C7  132   1.683   3.143   2.148 -0.4005 -0.1254 -0.2821
    6R02     H8  133   1.691   3.191   2.245  1.1413 -0.8648 -0.0014
    6R02     C8  134   1.601   3.190   2.046 -0.3057 -0.1888  0.0991
    6R02     H9  135   1.544   3.283   2.053  0.3786  0.1560  1.4191
    6R02     CA  136   1.411   2.949   1.754 -0.1552 -0.2834  0.6111
    6R02    H10  137   1.307   2.973   1.731 -0.2842 -0.1845  1.2718
    6R02    H11  138   1.411   2.951   1.864  0.6803  1.5155  0.6073
    6R02      C  139   1.469   2.811   1.718  0.0558  0.1630 -0.0879
    6R02      O  140   1.581   2.792   1.673  0.2526  0.7051 -0.1178
    7R02      N  141   1.380   2.711   1.749  0.4245 -0.1229 -0.0044
    7R02     C1  142   1.376   2.581   1.687 -0.2111  1.0082  0.0655
    7R02     H1  143   1.339   2.510   1.763  0.3868 -0.2701 -0.8079
    7R02     C2  144   1.262   2.585   1.586 -0.3384  0.7970 -0.1478
    7R02     H2  145   1.164   2.576   1.635 -0.8662  1.7958 -0.9949
    7R02     H3  146   1.265   2.497   1.521  0.7457 -0.2040  1.1991
    7R02     H4  147   1.241   2.679   1.534 -3.3249 -0.3174 -1.2095
    7R02     C3  148   1.510   2.521   1.640  0.0340  0.8575  1.5636
    7R02     C4  149   1.586   2.438   1.727  0.0216  0.2351 -0.4220
    7R02     H5  150   1.560   2.425   1.831 -0.4367  1.9020 -0.3029
    7R02     C5  151   1.700   2.377   1.675  0.3892  0.1524 -0.3366
    7R02     H6  152   1.768   2.316   1.735  1.0393 -2.2783 -3.2608
    7R02     C6  153   1.739   2.385   1.541 -0.1959  0.3336  0.0600
    7R02     H7  154   1.821   2.321   1.510 -1.2547 -1.5824  1.0069
    7R02     C7  155   1.657   2.458   1.451  0.7757 -0.2825  0.0479
    7R02     H8  156   1.694   2.469   1.349  0.2341 -1.3613 -0.2855
    7R02     C8  157   1.553   2.541   1.507 -0.3263 -0.2566 -0.4630
    7R02     H9  158   1.496   2.599   1.435 -1.5125 -0.7998  0.0041
    7R02     CA  159   1.242   2.742   1.811 -0.6362 -0.6915 -0.4822
    7R02    H10  160   1.189   2.647   1.825  0.1003 -0.9299  0.9207
    7R02    H11  161   1.183   2.799   1.738  0.8597 -1.5103 -2.4338
    7R02      C  162   1.240   2.797   1.956 -0.9300  0.0011 -0.0423
    7R02      O  163   1.325   2.753   2.034  0.0014  0.2626 -0.4267
    8R02      N  164   1.137   2.891   1.991 -0.1039 -0.2051 -0.1172
    8R02     C1  165   1.015   2.922   1.910  0.4534  0.7341  0.5070
    8R02     H1  166   1.000   2.849   1.830  1.3683  1.3514 -0.2410
    8R02     C2  167   0.888   2.880   1.994 -0.4265  0.3868 -0.3287
    8R02     H2  168   0.917   2.797   2.059 -1.3408  0.6861  0.4896
    8R02     H3  169   0.804   2.845   1.933  1.1552  0.9963 -3.0136
    8R02     H4  170   0.854   2.956   2.066 -2.7883 -1.7745  1.0170
    8R02     C3  171   1.012   3.065   1.844 -0.5677 -0.4661  0.2417
    8R02     C4  172   0.977   3.181   1.919  0.1719 -0.1647  0.3683
    8R02     H5  173   0.954   3.169   2.024  2.4745 -2.9449  0.6973
    8R02     C5  174   0.962   3.303   1.848  0.2843  0.4294  0.1021
    8R02     H6  175   0.927   3.390   1.904  0.7259  0.9386 -0.4103
    8R02     C6  176   1.006   3.317   1.709 -0.1433  0.1537 -0.4661
    8R02     H7  177   1.003   3.416   1.665  0.5056  1.2495  1.8309
    8R02     C7  178   1.035   3.199   1.636 -0.2187  0.0473 -0.2746
    8R02     H8  179   1.048   3.212   1.529 -0.7740  3.0462 -0.0530
    8R02     C8  180   1.049   3.078   1.706  0.1812  0.1309 -0.3844
    8R02     H9  181   1.081   2.990   1.650 -1.4811 -0.6754 -0.1386
    8R02     CA  182   1.115   2.927   2.135  0.2718  0.0535  0.3538
    8R02    H10  183   1.057   2.847   2.182 -1.5305  0.9181 -0.3260
    8R02    H11  184   1.043   3.009   2.142  1.7245  1.3305  0.8520
    8R02      C  185   1.233   2.967   2.226 -0.2131  0.6717  0.1801
    8R02      O  186   1.342   2.981   2.180  0.1069  0.2931  0.1121
    9R02      N  187   1.197   2.982   2.360 -0.2929 -0.5739 -0.4901
    9R02     C1  188   1.286   2.951   2.473  0.3351  0.3015  0.1902
    9R02     H1  189   1.256   3.018   2.554 -0.3590 -0.3059  0.4465
    9R02     C2  190   1.253   2.797   2.505  0.0964 -0.2920 -0.6911
    9R02     H2  191   1.252   2.751   2.405 -1.9875 -0.6141 -0.5642
    9R02     H3  192   1.159   2.767   2.552  0.8042  0.8302  1.5692
    9R02     H4  193   1.330   2.757   2.574 -3.1960 -0.9740  2.9383
    9R02     C3  194   1.433   2.998   2.461 -0.2958  0.0166 -0.3958
    9R02     C4  195   1.543   2.911   2.459 -0.0225 -0.5587  0.2471
    9R02     H5  196   1.531   2.805   2.436 -0.4355 -0.2550 -1.0104
    9R02     C5  197   1.676   2.955   2.492 -0.5743 -1.2119  0.2042
    9R02     H6  198   1.764   2.890   2.490  2.1279  2.1192  1.0721
    9R02     C6  199   1.699   3.092   2.501  0.4424  0.1675 -0.8044
    9R02     H7  200   1.799   3.132   2.519  0.6098 -1.1663  1.7639
    9R02     C7  201   1.593   3.183   2.492  1.0001  0.3287  0.0568
    9R02     H8  202   1.607   3.290   2.501  1.7191  0.0972  2.4098
    9R02     C8  203   1.461   3.134   2.476  0.2062 -0.2543  0.1794
    9R02     H9  204   1.377   3.203   2.474 -0.8769 -1.5167  0.4906
    9R02     CA  205   1.053   2.962   2.403 -0.0498 -0.7471 -0.2725
    9R02    H10  206   1.062   2.927   2.506  1.4960 -2.8048 -1.0190
    9R02    H11  207   1.007   2.869   2.366 -0.4939 -1.2309  1.4463
    9R02      C  208   0.967   3.091   2.382 -0.0657 -0.6121 -0.1197
    9R02      O  209   1.019   3.198   2.364  0.3428  0.2594  0.1651
   10R02      N  210   0.823   3.087   2.392 -0.1064  0.2302  0.0554
   10R02     C1  211   0.750   2.973   2.441  0.4786 -0.4308  0.2379
   10R02     H1  212   0.829   2.936   2.508  1.0887  0.3594 -0.0401
   10R02     C2  213   0.627   3.012   2.542 -0.3868  0.3560  0.1307
   10R02     H2  214   0.604   2.921   2.600  2.8002 -0.7018 -0.0346
   10R02     H3  215   0.530   3.034   2.496 -0.9773  0.7164  1.5015
   10R02     H4  216   0.638   3.088   2.621 -2.8949 -0.5771  1.4936
   10R02     C3  217   0.701   2.875   2.328 -0.2416  0.3308 -0.1008
   10R02     C4  218   0.595   2.905   2.233  0.7017  0.4313  0.5843
   10R02     H5  219   0.542   2.999   2.239 -0.7275 -0.3458  0.4051
   10R02     C5  220   0.544   2.804   2.140 -0.8325 -0.0152 -0.0990
   10R02     H6  221   0.463   2.830   2.072  0.7754  1.9519 -1.3746
   10R02     C6  222   0.609   2.677   2.139  0.0631  0.0943  0.1147
   10R02     H7  223   0.569   2.611   2.064 -2.9797  2.6273 -0.6979
   10R02     C7  224   0.708   2.653   2.230 -0.5489 -0.0968 -0.4708
   10R02     H8  225   0.746   2.551   2.238  1.6766  0.7800  1.1114
   10R02     C8  226   0.751   2.745   2.323 -0.1276  0.4054 -0.2083
   10R02     H9  227   0.839   2.720   2.382  0.3356 -0.1991 -1.1487
   10R02     CA  228   0.735   3.204   2.389  0.2487  0.6173 -0.8112
   10R02    H10  229   0.734   3.238   2.493  0.7372 -0.1305 -0.5550
   10R02    H11  230   0.634   3.168   2.364  0.0347 -0.9382  1.8561
   10R02      C  231   0.773   3.304   2.278 -0.1002  0.0268  0.1273
   10R02      O  232   0.774   3.283   2.159  0.3390  0.4118 -0.3387
   11NH2      N  233   0.802   3.431   2.322  0.1400 -1.1754  0.4445
   11NH2     H1  234   0.855   3.496   2.265 -0.2326 -0.8399  0.4732
   11NH2     H2  235   0.809   3.448   2.422 -0.6326 -0.6468  0.4260
   12CHL     CL  236   1.774   4.307   1.879  0.2274 -0.3068 -0.0661
   12CHL      C  237   1.903   4.317   1.761  0.5213  0.2197 -0.9156
   12CHL    CL1  238   1.895   4.478   1.675  0.2641  0.3151  0.1416
   12CHL    CL2  239   2.065   4.297   1.841 -0.0203 -0.1108 -0.2841
   12CHL      H  240   1.893   4.227   1.700  0.1706 -1.5569  1.5727
   13CHL     CL  241   3.994   2.652   0.389 -0.4330 -0.1217 -0.2314
   13CHL      C  242   4.010   2.476   0.373  0.2410 -0.3870 -0.2517
   13CHL    CL1  243   4.117   2.432   0.516 -0.3234 -0.3152  0.4420
   13CHL    CL2  244   3.845   2.408   0.399 -0.0126 -0.0915  0.1123
   13CHL      H  245   4.061   2.449   0.280 -1.3463  1.0585 -1.5946
   14CHL     CL  246   3.477   4.224   1.865  0.4944 -0.4649 -0.1368
   14CHL      C  247   3.608   4.141   1.782  0.3341  0.4096  0.2931
   14CHL    CL1  248   3.680   4.247   1.664 -0.2724  0.3983  0.3858
   14CHL    CL2  249   3.734   4.092   1.914  0.0445  0.5398  0.2360
   14CHL      H  250   3.568   4.048   1.741 -1.9179  1.7852 -0.8037
   15CHL     CL  251   0.677   1.985   3.524  0.1852 -0.2165 -0.1443
   15CHL      C  252   0.830   1.959   3.454 -0.4569  0.0643 -0.2266
   15CHL    CL1  253   0.933   2.100   3.411  0.1545 -0.1463 -0.0701
   15CHL    CL2  254   0.938   1.861   3.560 -0.0641 -0.1908 -0.1136
   15CHL      H  255   0.810   1.908   3.359 -0.2315 -1.9252  0.7496
   16CHL     CL  256   3.768   1.946   1.947  0.0077  0.4284  0.4186
   16CHL      C  257   3.906   2.006   1.839 -0.5232 -0.0008 -0.1775
   16CHL    CL1  258   4.057   1.915   1.861  0.0533  0.3884 -0.1366
   16CHL    CL2  259   3.876   2.020   1.664 -0.1679 -0.1304 -0.3070
   16CHL      H  260   3.925   2.111   1.864 -1.1907  0.5281 -1.7713
   17CHL     CL  261   3.832   1.196   3.124 -0.2856 -0.5402 -0.1569
   17CHL      C  262   3.869   1.370   3.188 -0.5412  0.2643 -0.6221
   17CHL    CL1  263   3.724   1.470   3.216  0.1054  0.1940 -0.1823
   17CHL    CL2  264   3.964   1.356   3.340 -0.2281 -0.2957  0.1588
   17CHL      H  265   3.940   1.418   3.120  0.9072  0.6512  1.0674
   18CHL     CL  266   3.803   2.822   2.755  0.2538  0.3815  0.1819
   18CHL      C  267   3.850   2.762   2.913 -1.0798 -0.0274 -0.4684
   18CHL    CL1  268   3.770   2.868   3.040  0.3635  0.0082 -0.0876
   18CHL    CL2  269   3.800   2.589   2.932 -0.2509 -0.3539  0.1735
   18CHL      H  270   3.959   2.773   2.915 -1.1195  0.8002 -1.6511
   19CHL     CL  271   3.319   2.861   1.399 -0.0601  0.1876  0.1564
   19CHL      C  272   3.477   2.772   1.381  0.1902 -0.2799 -0.2316
   19CHL    CL1  273   3.550   2.793   1.216 -0.0409  0.1051 -0.0989
   19CHL    CL2  274   3.603   2.834   1.503 -0.0886  0.1178 -0.0166
   19CHL      H  275   3.460   2.667   1.409  0.8146 -0.0399  1.1301
   20CHL     CL  276   3.020   1.267   2.615  0.1247 -0.3871 -0.3078
   20CHL      C  277   3.187   1.292   2.581  0.0534 -0.3238 -0.0087
   20CHL    CL1  278   3.263   1.177   2.467 -0.0970 -0.4539  0.3910
   20CHL    CL2  279   3.215   1.462   2.509 -0.2352 -0.2345  0.1294
   20CHL      H  280   3.251   1.303   2.669  0.6943 -0.4502 -0.4490
   21CHL     CL  281   0.877   0.268   0.140  0.1583  0.0103 -0.1496
   21CHL      C  282   0.794   0.313  -0.012  0.2937  0.3577  0.0752
   21CHL    CL1  283   0.735   0.173  -0.096  0.1196 -0.0512  0.5788
   21CHL    CL2  284   0.665   0.444   0.024 -0.3562  0.5383  0.3401
   21CHL      H  285   0.869   0.366  -0.072 -1.2880  4.9651  1.7208
   22CHL     CL  286   2.265   1.466   2.990 -0.4177  0.2319  0.1676
   22CHL      C  287   2.173   1.330   2.911 -0.9262 -0.5673 -0.4853
   22CHL    CL1  288   2.051   1.403   2.784  0.0306 -0.1826  0.2999
   22CHL    CL2  289   2.286   1.210   2.817 -0.0830  0.0047 -0.0983
   22CHL      H  290   2.121   1.279   2.993 -0.0482  0.0432  0.4790
   23CHL     CL  291   1.208   3.887   2.469  0.1587 -0.1354 -0.2448
   23CHL      C  292   1.028   3.864   2.451 -0.3919 -0.5589 -0.8839
   23CHL    CL1  293   0.949   4.020   2.455 -0.0182  0.1343  0.0229
   23CHL    CL2  294   0.987   3.779   2.299 -0.2647 -0.2149 -0.3100
   23CHL      H  295   0.997   3.797   2.532  1.3842 -1.5218 -0.9410
   24CHL     CL  296   3.057   1.076   0.370 -0.1163 -0.0754  0.0347
   24CHL      C  297   3.084   1.239   0.298 -0.4144  0.5186  0.3171
   24CHL    CL1  298   3.146   1.223   0.131  0.2377  0.0268  0.4148
   24CHL    CL2  299   2.923   1.306   0.285  0.0769 -0.2115  0.3679
   24CHL      H  300   3.151   1.303   0.356 -2.2587  1.4334  1.5401
   25CHL     CL  301   1.867   0.531   1.260 -0.1604  0.0074  0.1625
   25CHL      C  302   1.911   0.392   1.161 -0.7378  0.1665 -0.2256
   25CHL    CL1  303   2.043   0.294   1.241 -0.0058  0.0064 -0.2694
   25CHL    CL2  304   1.770   0.285   1.137  0.0777  0.0193 -0.1189
   25CHL      H  305   1.957   0.421   1.066 -1.2179 -0.8059 -0.7800
   26CHL     CL  306   0.584   0.243   0.790  0.1158  0.2409 -0.3238
   26CHL      C  307   0.564   0.124   0.665  0.0579  0.0632 -0.1529
   26CHL    CL1  308   0.720   0.079   0.588 -0.2526  0.3378  0.0970
   26CHL    CL2  309   0.465  -0.006   0.733  0.2792 -0.2477  0.2771
   26CHL      H  310   0.500   0.163   0.585 -0.3629 -0.0935  0.1041
   27CHL     CL  311   3.335   0.720   0.037  0.0988 -0.2568  0.1368
   27CHL      C  312   3.272   0.832   0.165 -0.6887  0.0098 -0.9299
   27CHL    CL1  313   3.276   0.768   0.335 -0.3834  0.0926  0.5630
   27CHL    CL2  314   3.365   0.987   0.173 -0.2715  0.0287  0.2024
   27CHL      H  315   3.166   0.850   0.146 -1.5794 -1.3058  2.1573
   28CHL     CL  316   2.514   0.423   4.135 -0.1252  0.2107 -0.0752
   28CHL      C  317   2.436   0.585   4.169  0.0011 -0.7629 -0.1465
   28CHL    CL1  318   2.266   0.559   4.134  0.0851 -0.1856  0.0696
   28CHL    CL2  319   2.451   0.647   4.332  0.1562  0.0236  0.2385
   28CHL      H  320   2.483   0.653   4.097 -0.1645 -1.1411 -0.6143
   29CHL     CL  321   2.754   3.865   2.917 -0.1709  0.1116  0.1173
   29CHL      C  322   2.783   3.853   2.739 -0.4523 -0.1485 -0.3256
   29CHL    CL1  323   2.670   3.954   2.646 -0.3281  0.0094 -0.2540
   29CHL    CL2  324   2.948   3.905   2.694  0.0154  0.0485  0.0884
   29CHL      H  325   2.768   3.751   2.703 -2.1492  0.2733 -0.9375
   30CHL     CL  326   3.508   2.999   1.783  0.3713 -0.3013  0.1204
   30CHL      C  327   3.507   3.022   1.956 -0.4809 -0.0377 -0.2022
   30CHL    CL1  328   3.481   2.870   2.037  0.0718 -0.2490  0.1042
   30CHL    CL2  329   3.668   3.092   2.015  0.1088 -0.1537 -0.3277
   30CHL      H  330   3.425   3.085   1.991 -1.0299 -1.3022  0.8436
   31CHL     CL  331   0.757   1.969   2.255  0.2530  0.0757  0.0124
   31CHL      C  332   0.628   2.060   2.153 -0.3296  0.8224 -0.1620
   31CHL    CL1  333   0.475   2.118   2.237 -0.1301  0.2568 -0.3973
   31CHL    CL2  334   0.714   2.209   2.078 -0.0521  0.2513 -0.0014
   31CHL      H  335   0.600   1.988   2.076 -2.2113  1.2244  0.0852
   32CHL     CL  336   3.136   3.971   3.770  0.2698 -0.2705  0.1224
   32CHL      C  337   3.318   4.012   3.775 -0.2102 -0.3088  0.4328
   32CHL    CL1  338   3.365   4.123   3.915 -0.1578  0.1909 -0.0985
   32CHL    CL2  339   3.416   3.861   3.785  0.5182  0.1351  0.1307
   32CHL      H  340   3.345   4.063   3.681  1.6820 -1.4626  0.2922
   33CHL     CL  341   3.192   2.125   1.139 -0.2766 -0.0237  0.2088
   33CHL      C  342   3.313   2.089   1.002  0.2338 -0.1732  0.7365
   33CHL    CL1  343   3.462   2.172   1.026 -0.3426  0.1789 -0.3187
   33CHL    CL2  344   3.361   1.918   1.013 -0.1011 -0.0392  0.2947
   33CHL      H  345   3.273   2.111   0.903  0.0256  2.1872  1.2906
   34CHL     CL  346   2.356   0.177   4.343 -0.1190 -0.2854  0.1125
   34CHL      C  347   2.359   0.127   4.512  0.4815 -0.5095 -0.2370
   34CHL    CL1  348   2.309  -0.039   4.536  0.1440  0.0629  0.1002
   34CHL    CL2  349   2.524   0.159   4.582  0.1888 -0.4274  0.2070
   34CHL      H  350   2.279   0.183   4.563 -0.6127 -0.3258 -2.0813
   35CHL     CL  351   0.473   1.196   0.456 -0.1034 -0.3170 -0.1238
   35CHL      C  352   0.395   1.285   0.316  0.1119  0.3551 -0.2891
   35CHL    CL1  353   0.251   1.203   0.268 -0.0245  0.1398 -0.0997
   35CHL    CL2  354   0.340   1.456   0.361 -0.4280  0.1617  0.0154
   35CHL      H  355   0.458   1.296   0.227 -0.3406 -3.2730 -1.2318
   36CHL     CL  356   4.004   3.630   2.605 -0.6335 -0.0078 -0.0222
   36CHL      C  357   4.084   3.747   2.720 -0.2834  0.3260  0.4255
   36CHL    CL1  358   4.259   3.744   2.696 -0.1957  0.2464 -0.0103
   36CHL    CL2  359   4.035   3.913   2.693 -0.0219  0.2105 -0.4622
   36CHL      H  360   4.053   3.725   2.823  0.3050 -0.2242  0.4908
   37CHL     CL  361   4.105   3.206   0.030  0.2218 -0.0647 -0.3877
   37CHL      C  362   4.053   3.302  -0.116  0.0532 -0.1789 -0.3045
   37CHL    CL1  363   3.920   3.421  -0.084  0.2639  0.3345  0.3184
   37CHL    CL2  364   4.191   3.384  -0.184 -0.1299  0.1078  0.1020
   37CHL      H  365   4.012   3.239  -0.195  0.5231 -0.7155 -0.1318
   38CHL     CL  366   3.496   1.034   1.207  0.1698  0.2067  0.2506
   38CHL      C  367   3.606   1.092   1.337  0.2650  0.9109 -0.7458
   38CHL    CL1  368   3.593   0.978   1.484 -0.1412 -0.0191  0.4819
   38CHL    CL2  369   3.778   1.118   1.286  0.0876  0.0567  0.1961
   38CHL      H  370   3.574   1.195   1.358 -1.2125  0.5509 -1.1687
   39CHL     CL  371   1.856   4.259   3.843 -0.3003 -0.0457  0.2947
   39CHL      C  372   1.883   4.428   3.847  0.1316  0.2211 -0.1549
   39CHL    CL1  373   1.756   4.500   3.952 -0.2050  0.1135  0.2973
   39CHL    CL2  374   2.044   4.467   3.919 -0.3078  0.0026  0.5120
   39CHL      H  375   1.888   4.475   3.748 -0.3579 -0.0331 -0.3013
   40CHL     CL  376   1.842   0.948   1.560  0.5859 -0.0659 -0.0870
   40CHL      C  377   1.759   0.836   1.463 -0.3778  0.7162  0.7399
   40CHL    CL1  378   1.579   0.831   1.494  0.4400  0.1489  0.1693
   40CHL    CL2  379   1.796   0.870   1.291 -0.2383 -0.0846  0.3424
   40CHL      H  380   1.799   0.735   1.479 -2.5624 -0.5516 -1.2505
   41CHL     CL  381   2.132   3.333   1.647 -0.0759 -0.1158  0.2744
   41CHL      C  382   1.969   3.376   1.572 -0.0657 -0.0133  0.1503
   41CHL    CL1  383   1.835   3.278   1.629 -0.0827 -0.0797 -0.1396
   41CHL    CL2  384   1.925   3.556   1.596 -0.3442  0.0493 -0.2429
   41CHL      H  385   1.980   3.345   1.467  2.4356  0.2197  0.2687
   42CHL     CL  386   0.040   1.466   1.014  0.1450 -0.1865 -0.1851
   42CHL      C  387  -0.094   1.582   0.986 -0.3029 -0.1478 -0.0529
   42CHL    CL1  388  -0.170   1.624   1.147 -0.2499 -0.2512  0.3886
   42CHL    CL2  389  -0.027   1.744   0.920 -0.1726 -0.2379  0.3087
   42CHL      H  390  -0.169   1.545   0.915 -1.0546  2.8684 -0.9772
   43CHL     CL  391   3.928   0.957   4.185  0.2296 -0.4672 -0.5589
   43CHL      C  392   3.763   1.029   4.235 -0.3266  0.2127  0.1776
   43CHL    CL1  393   3.666   1.065   4.088 -0.1641  0.1803 -0.0082
   43CHL    CL2  394   3.680   0.904   4.327  0.1643  0.0133  0.2488
   43CHL      H  395   3.781   1.121   4.292 -1.2184  0.1006  0.6688
   44CHL     CL  396   0.941   1.510   1.005 -0.2291  0.0192  0.1231
   44CHL      C  397   0.800   1.407   0.978 -0.0449 -0.0792 -0.8264
   44CHL    CL1  398   0.848   1.233   0.927 -0.0983  0.0993 -0.6626
   44CHL    CL2  399   0.703   1.399   1.125  0.4174 -0.6562  0.2722
   44CHL      H  400   0.744   1.446   0.891  0.4004 -0.7133 -1.4109
   45CHL     CL  401   2.903   2.404   1.798 -0.0081 -0.3639  0.1088
   45CHL      C  402   3.084   2.409   1.786  0.0694 -0.3465 -0.1399
   45CHL    CL1  403   3.156   2.573   1.824 -0.0239 -0.1772  0.1368
   45CHL    CL2  404   3.156   2.303   1.919 -0.1650  0.3725  0.2650
   45CHL      H  405   3.116   2.373   1.687 -0.2483  1.0787 -0.7854
   46CHL     CL  406   3.307   2.736   2.399  0.3622 -0.8247  0.0806
   46CHL      C  407   3.150   2.696   2.318 -0.4748  0.6667  0.8267
   46CHL    CL1  408   3.071   2.861   2.266 -0.4083  0.6039  0.2609
   46CHL    CL2  409   3.174   2.589   2.174  0.4307 -0.1669 -0.5663
   46CHL      H  410   3.082   2.640   2.383 -0.7021  1.1902  1.0472
   47CHL     CL  411   1.751   3.032   4.227 -0.0119 -0.1354  0.1339
   47CHL      C  412   1.641   3.026   4.367 -0.3834  0.0757 -0.4214
   47CHL    CL1  413   1.651   2.861   4.438  0.0051  0.1595  0.1875
   47CHL    CL2  414   1.673   3.139   4.506 -0.0621 -0.6336 -0.1508
   47CHL      H  415   1.540   3.053   4.333 -1.2056  0.8991  2.3928
   48CHL     CL  416   3.573   2.279   0.679 -0.3304 -0.0062  0.0064
   48CHL      C  417   3.568   2.108   0.614  0.3301 -0.4893  0.7113
   48CHL    CL1  418   3.700   2.088   0.504 -0.5331 -0.0389  0.3596
   48CHL    CL2  419   3.594   1.996   0.743 -0.0097  0.5376 -0.0214
   48CHL      H  420   3.479   2.083   0.554  0.3392  1.7833 -0.3616
   49CHL     CL  421   3.137   0.722   1.182  0.1528  0.1336 -0.0839
   49CHL      C  422   3.300   0.769   1.251  0.0902  0.8816  0.2524
   49CHL    CL1  423   3.319   0.709   1.413  0.2263 -0.3766  0.0134
   49CHL    CL2  424   3.442   0.697   1.159 -0.1118 -0.3373  0.2637
   49CHL      H  425   3.306   0.878   1.256  0.3881  0.8757  0.0764
   50CHL     CL  426   1.341   0.918   3.752  0.1042  0.1557  0.5247
   50CHL      C  427   1.493   0.850   3.800  0.0490 -0.2357  1.6753
   50CHL    CL1  428   1.504   0.836   3.980  0.1284  0.0371 -0.0369
   50CHL    CL2  429   1.511   0.681   3.719  0.1722 -0.2032 -0.2886
   50CHL      H  430   1.579   0.916   3.782 -0.5439 -0.1018 -0.9972
   51CHL     CL  431   1.094   3.426   3.991  0.0161 -0.0316  0.3513
   51CHL      C  432   1.055   3.354   3.828 -0.1090 -0.2991  0.0315
   51CHL    CL1  433   1.076   3.180   3.837 -0.3775 -0.1935  0.0727
   51CHL    CL2  434   0.897   3.408   3.758 -0.1299 -0.2557  0.0400
   51CHL      H  435   1.122   3.385   3.747 -2.4563 -1.5795 -2.5921
   52CHL     CL  436   1.214   1.819   3.938  0.0548  0.0108  0.1332
   52CHL      C  437   1.359   1.739   3.861 -0.3861 -0.6502  0.0306
   52CHL    CL1  438   1.308   1.682   3.697  0.2076 -0.1681 -0.2933
   52CHL    CL2  439   1.480   1.870   3.844 -0.0884 -0.3765  0.3408
   52CHL      H  440   1.392   1.660   3.929  2.8424 -0.5295 -1.2379
   53CHL     CL  441   0.648   2.467   0.983 -0.0925 -0.2799 -0.0676
   53CHL      C  442   0.484   2.428   0.930  0.8347  0.1009 -0.4591
   53CHL    CL1  443   0.384   2.574   0.888  0.1893 -0.0722  0.5142
   53CHL    CL2  444   0.487   2.316   0.796  0.5729  0.0364  0.3694
   53CHL      H  445   0.438   2.377   1.015  1.4717  0.6352  0.2196
   54CHL     CL  446   2.860   3.907   2.276 -0.1561 -0.0274  0.0445
   54CHL      C  447   2.972   3.863   2.140  0.0245 -0.0609  0.1524
   54CHL    CL1  448   3.143   3.917   2.169 -0.0962  0.3754 -0.2698
   54CHL    CL2  449   2.973   3.691   2.121 -0.2980  0.1894  0.4224
   54CHL      H  450   2.934   3.908   2.048 -0.9150 -0.1745  0.4733
   55CHL     CL  451   2.774   2.603   2.235  0.2759 -0.0542  0.1438
   55CHL      C  452   2.688   2.663   2.092  0.0224 -0.1129  0.0523
   55CHL    CL1  453   2.514   2.631   2.101  0.1260 -0.1127 -0.0289
   55CHL    CL2  454   2.739   2.838   2.071  0.2032 -0.0588  0.1716
   55CHL      H  455   2.722   2.605   2.005  2.4920  2.3326 -0.7585
   56CHL     CL  456   2.805   2.810   3.266  0.1070 -0.1004  0.0557
   56CHL      C  457   2.675   2.866   3.389  0.7219  0.3577 -0.0193
   56CHL    CL1  458   2.605   3.021   3.338  0.1514  0.0422  0.1962
   56CHL    CL2  459   2.529   2.763   3.387  0.4558 -0.1091 -0.0405
   56CHL      H  460   2.719   2.859   3.489  0.7416 -1.3115 -0.1028
   57CHL     CL  461   1.515   2.573   0.214 -0.0965  0.4597  0.0808
   57CHL      C  462   1.427   2.600   0.071 -0.1318  0.2031 -0.0112
   57CHL    CL1  463   1.355   2.438   0.026  0.0882 -0.3522  0.4720
   57CHL    CL2  464   1.296   2.725   0.118 -0.0697 -0.6583 -0.3181
   57CHL      H  465   1.486   2.641  -0.011 -1.6169  1.7740 -0.3424
   58CHL     CL  466   1.304   1.983   3.343 -0.3296 -0.0733 -0.3219
   58CHL      C  467   1.346   2.082   3.490 -0.0391  0.3671 -0.5165
   58CHL    CL1  468   1.231   2.049   3.623  0.3454  0.1050 -0.0174
   58CHL    CL2  469   1.514   2.044   3.544 -0.3273  0.3815  0.2764
   58CHL      H  470   1.352   2.189   3.466  1.3493  0.3349 -0.3842
   59CHL     CL  471   4.040   1.768   0.483  0.1465 -0.2229 -0.4901
   59CHL      C  472   4.129   1.771   0.644 -0.3187  0.9336  0.0435
   59CHL    CL1  473   4.176   1.943   0.676 -0.4735 -0.1784 -0.0067
   59CHL    CL2  474   4.035   1.712   0.784 -0.0546 -0.6380 -0.1329
   59CHL      H  475   4.218   1.709   0.633 -1.6362 -0.9427 -0.5659
   60CHL     CL  476   1.694   3.642   2.010 -0.2880 -0.0444 -0.0752
   60CHL      C  477   1.671   3.625   1.827 -0.4523 -0.1097 -0.0239
   60CHL    CL1  478   1.501   3.600   1.780  0.1166 -0.2297 -0.1883
   60CHL    CL2  479   1.729   3.790   1.760  0.0971 -0.2910 -0.0405
   60CHL      H  480   1.729   3.542   1.785  0.4437  0.6958 -0.4341
   61CHL     CL  481   3.261   1.172   0.744 -0.1171  0.0815  0.1575
   61CHL      C  482   3.415   1.207   0.660  0.5047 -0.6573 -0.7923
   61CHL    CL1  483   3.498   1.051   0.610 -0.1745 -0.1347  0.1686
   61CHL    CL2  484   3.393   1.296   0.506 -0.3745  0.2566  0.0189
   61CHL      H  485   3.484   1.261   0.726  1.0955 -2.0997 -0.1984
   62CHL     CL  486   3.071   3.947   3.263  0.2408 -0.2662  0.2272
   62CHL      C  487   3.240   3.971   3.259  0.6148 -0.3100 -0.8127
   62CHL    CL1  488   3.303   3.994   3.421 -0.5762  0.2179 -0.3987
   62CHL    CL2  489   3.320   3.831   3.197  0.3373  0.2552  0.4990
   62CHL      H  490   3.264   4.059   3.198 -0.3895 -0.0371 -0.8344
   63CHL     CL  491   1.479   2.190   0.227  0.4302  0.0670 -0.1328
   63CHL      C  492   1.480   2.161   0.400  0.0248 -0.1112  0.0494
   63CHL    CL1  493   1.352   2.050   0.450  0.3236  0.0307  0.0626
   63CHL    CL2  494   1.638   2.092   0.462 -0.1731 -0.0738 -0.0500
   63CHL      H  495   1.458   2.252   0.456  1.0697  0.6127 -0.6801
   64CHL     CL  496   2.566   0.742   1.082  0.4454 -0.2261  0.0037
   64CHL      C  497   2.742   0.743   1.147 -0.2220  0.3643 -0.0894
   64CHL    CL1  498   2.750   0.894   1.241 -0.3877 -0.1263  0.5953
   64CHL    CL2  499   2.765   0.604   1.258  0.0748 -0.1588  0.2837
   64CHL      H  500   2.811   0.740   1.062 -0.3192 -0.0138 -0.1583
   65CHL     CL  501   1.808   1.171   3.956  0.0831  0.1523 -0.2735
   65CHL      C  502   1.901   1.016   3.946  0.5213 -0.3191  0.1099
   65CHL    CL1  503   1.853   0.923   4.088 -0.1089  0.2034 -0.1622
   65CHL    CL2  504   1.854   0.932   3.792  0.2832 -0.2465  0.0372
   65CHL      H  505   2.008   1.037   3.953  0.7418 -1.4975  0.5045
   66CHL     CL  506   1.825   0.884   2.472  0.1918  0.1124 -0.5103
   66CHL      C  507   1.830   0.755   2.598 -0.5931 -0.3783  0.3505
   66CHL    CL1  508   1.675   0.761   2.686  0.1187 -0.2193  0.1299
   66CHL    CL2  509   1.830   0.595   2.505 -0.1657 -0.3000 -0.2594
   66CHL      H  510   1.922   0.765   2.656  0.3372 -2.3336 -0.6940
   67CHL     CL  511   1.273   1.018   2.444  0.0822  0.0350  0.1300
   67CHL      C  512   1.213   1.179   2.385 -0.1096  0.1721  0.5784
   67CHL    CL1  513   1.350   1.289   2.339  0.2362 -0.5068  0.3654
   67CHL    CL2  514   1.082   1.164   2.256  0.2055  0.3615  0.3984
   67CHL      H  515   1.163   1.223   2.472  0.7977  2.1865  0.1427
   68CHL     CL  516   3.979   1.642   1.574  0.0632  0.2804 -0.0475
   68CHL      C  517   3.827   1.608   1.679  0.9114 -0.1411 -0.1691
   68CHL    CL1  518   3.743   1.453   1.630  0.4539  0.0961  0.4248
   68CHL    CL2  519   3.874   1.594   1.853 -0.1305 -0.2375 -0.6165
   68CHL      H  520   3.761   1.694   1.668  2.2104  0.7126 -1.9664
   69CHL     CL  521   1.426   3.137   2.879  0.0759  0.0633  0.0363
   69CHL      C  522   1.515   3.300   2.869  0.1113 -0.1051  0.0798
   69CHL    CL1  523   1.489   3.370   3.032 -0.0670  0.2715  0.2529
   69CHL    CL2  524   1.683   3.255   2.849  0.4615 -0.0490  0.4034
   69CHL      H  525   1.475   3.367   2.793  0.4379  1.0160  0.8719
   70CHL     CL  526   0.396   1.433   3.695  0.0289  0.1216  0.1978
   70CHL      C  527   0.558   1.387   3.779 -0.0889  0.5176  0.7837
   70CHL    CL1  528   0.527   1.231   3.863 -0.2385  0.4086 -0.2875
   70CHL    CL2  529   0.700   1.371   3.673 -0.1608  0.4347  0.4202
   70CHL      H  530   0.586   1.467   3.848  3.1215  0.1090  0.1301
   71CHL     CL  531   2.102   1.381   4.225 -0.0460 -0.0251 -0.4171
   71CHL      C  532   2.205   1.231   4.273  0.2630 -0.1798  0.1356
   71CHL    CL1  533   2.078   1.111   4.330  0.5218 -0.1030  0.0282
   71CHL    CL2  534   2.309   1.164   4.141  0.2041 -0.2344 -0.0132
   71CHL      H  535   2.264   1.254   4.362  3.8093 -3.2723 -1.1417
   72CHL     CL  536   3.933   0.770   0.173 -0.3728  0.1246  0.1436
   72CHL      C  537   3.879   0.782   0.348 -0.8802 -0.3853  0.2628
   72CHL    CL1  538   3.998   0.882   0.433  0.0664 -0.2198 -0.0685
   72CHL    CL2  539   3.708   0.848   0.356  0.0611 -0.0766 -0.0494
   72CHL      H  540   3.884   0.681   0.389 -0.3770 -0.8288 -0.8600
   73CHL     CL  541   3.143   0.003   2.318  0.5282  0.5462  0.0147
   73CHL      C  542   3.031  -0.126   2.265 -0.7370 -0.3674  0.4952
   73CHL    CL1  543   2.861  -0.082   2.328 -0.0751 -0.5546  0.2222
   73CHL    CL2  544   3.038  -0.141   2.083 -0.2347 -0.1704  0.3265
   73CHL      H  545   3.063  -0.221   2.309 -0.6175 -0.7969 -0.4860
   74CHL     CL  546   1.741   2.377   0.818 -0.2438  0.1192 -0.2619
   74CHL      C  547   1.686   2.489   0.951 -0.3708  1.2301 -0.3776
   74CHL    CL1  548   1.558   2.417   1.058 -0.0485 -0.3532 -0.0569
   74CHL    CL2  549   1.824   2.537   1.050 -0.0696 -0.1467 -0.0252
   74CHL      H  550   1.645   2.574   0.896  1.7513 -0.4802 -5.1956
   75CHL     CL  551   3.083   3.765   4.111  0.1883  0.0684  0.2492
   75CHL      C  552   2.972   3.698   3.990  0.0696  0.0595 -0.0207
   75CHL    CL1  553   2.867   3.832   3.919 -0.1118  0.1909  0.0989
   75CHL    CL2  554   3.069   3.634   3.861  0.1346 -0.0985 -0.2901
   75CHL      H  555   2.909   3.624   4.041  3.0419 -2.9566 -0.4283
   76CHL     CL  556   3.908   1.513   2.458 -0.0590  0.1943  0.0648
   76CHL      C  557   3.912   1.347   2.516  0.2903 -0.4724 -0.4054
   76CHL    CL1  558   3.900   1.233   2.381 -0.2403 -0.1403 -0.4079
   76CHL    CL2  559   4.072   1.317   2.611  0.1941  0.0812  0.0039
   76CHL      H  560   3.827   1.326   2.583  0.0035 -0.2827 -0.7046
   77CHL     CL  561   2.608   2.184   0.719  0.0096 -0.1915 -0.1515
   77CHL      C  562   2.773   2.194   0.660 -0.2474 -1.0810  0.2007
   77CHL    CL1  563   2.881   2.192   0.806  0.0132 -0.1009  0.2604
   77CHL    CL2  564   2.815   2.062   0.549 -0.1581  0.5163 -0.3931
   77CHL      H  565   2.777   2.292   0.613  0.3573 -0.1811  2.0403
   78CHL     CL  566   3.557   0.263   2.270 -0.1654  0.5514 -0.1856
   78CHL      C  567   3.494   0.122   2.369 -0.7158  0.1297 -0.0431
   78CHL    CL1  568   3.459  -0.030   2.262 -0.3431 -0.1001 -0.1236
   78CHL    CL2  569   3.618   0.074   2.488  0.2055  0.0599  0.0123
   78CHL      H  570   3.400   0.148   2.419 -0.3267  1.1560  0.1827
   79CHL     CL  571   3.679   3.867   0.675 -0.2427  0.0226 -0.0610
   79CHL      C  572   3.626   3.954   0.527 -0.1026  0.4208  0.0950
   79CHL    CL1  573   3.454   3.916   0.509  0.1290 -0.1794 -0.1847
   79CHL    CL2  574   3.657   4.137   0.550 -0.4368 -0.0099 -0.3320
   79CHL      H  575   3.690   3.917   0.446  1.4998  0.1796  1.4100
   80CHL     CL  576   4.048   4.325   0.723 -0.1613 -0.0829  0.0791
   80CHL      C  577   4.086   4.457   0.611 -0.4239 -0.4139 -0.1543
   80CHL    CL1  578   4.263   4.441   0.562 -0.1298 -0.0129  0.0672
   80CHL    CL2  579   3.980   4.454   0.466  0.1229  0.3505 -0.1816
   80CHL      H  580   4.059   4.544   0.673 -1.5570 -1.9247  1.5917
   81CHL     CL  581   2.800   2.912   2.911 -0.0820 -0.3324 -0.1058
   81CHL      C  582   2.700   2.767   2.923 -0.0446  0.3493  0.0582
   81CHL    CL1  583   2.555   2.802   3.000 -0.1131  0.3975  0.2417
   81CHL    CL2  584   2.662   2.703   2.754  0.1199  0.3234 -0.0847
   81CHL      H  585   2.769   2.702   2.977  0.6359 -1.0334 -2.2881
   82CHL     CL  586   2.274   1.171   2.247 -0.3802 -0.3674 -0.5492
   82CHL      C  587   2.203   1.131   2.404  0.1609  0.4712  0.4276
   82CHL    CL1  588   2.032   1.179   2.413 -0.1674  0.0546  0.3741
   82CHL    CL2  589   2.224   0.961   2.439 -0.0416 -0.0794  0.3816
   82CHL      H  590   2.251   1.205   2.468  1.1500 -0.0955  0.3484
   83CHL     CL  591   0.798   3.919   2.972 -0.2015 -0.1825 -0.3963
   83CHL      C  592   0.798   4.087   2.897  0.2428 -0.5442  0.1040
   83CHL    CL1  593   0.962   4.135   2.858  0.0899 -0.6722  0.3756
   83CHL    CL2  594   0.698   4.097   2.744 -0.0627 -0.1211  0.5085
   83CHL      H  595   0.745   4.146   2.973 -3.4859 -0.4883 -2.2494
   84CHL     CL  596   1.186   0.707   1.792 -0.1056 -0.2218 -0.0832
   84CHL      C  597   1.041   0.824   1.771 -0.4617  0.5165 -0.0819
   84CHL    CL1  598   1.015   0.867   1.606  0.2904  0.1353  0.0836
   84CHL    CL2  599   0.897   0.761   1.864 -0.0229  0.1075 -0.0460
   84CHL      H  600   1.064   0.916   1.825 -3.5250  1.0750  0.4878
   85CHL     CL  601   4.341   1.607   2.776  0.3121 -0.3156  0.1571
   85CHL      C  602   4.303   1.684   2.939 -0.6751 -0.3972 -0.3394
   85CHL    CL1  603   4.317   1.571   3.079 -0.0984 -0.5982 -0.2212
   85CHL    CL2  604   4.388   1.836   2.956 -0.4477  0.0462 -0.1814
   85CHL      H  605   4.196   1.708   2.936 -0.2854  1.7154  0.7982
   86CHL     CL  606   2.768   1.437   2.452  0.1349  0.1680  0.1295
   86CHL      C  607   2.672   1.289   2.429  0.3806  0.2505 -0.1339
   86CHL    CL1  608   2.715   1.154   2.544  0.0791  0.1080  0.3093
   86CHL    CL2  609   2.501   1.319   2.466  0.2616 -0.2302  0.3528
   86CHL      H  610   2.683   1.256   2.325  0.0724 -0.4469  0.0440
   87CHL     CL  611   4.269   1.073   3.301 -0.1937 -0.3581 -0.1729
   87CHL      C  612   4.187   0.943   3.216  0.2288 -0.2477  0.2087
   87CHL    CL1  613   4.315   0.856   3.119 -0.0955 -0.0589 -0.3920
   87CHL    CL2  614   4.085   0.834   3.325 -0.1160 -0.3480  0.0020
   87CHL      H  615   4.121   1.000   3.149 -0.8027 -0.3535  1.1061
   88CHL     CL  616   0.284   1.641   2.699  0.1926 -0.0969  0.1353
   88CHL      C  617   0.286   1.696   2.524 -0.2281 -0.3787  0.3326
   88CHL    CL1  618   0.382   1.858   2.512 -0.2413 -0.3352  0.3723
   88CHL    CL2  619   0.372   1.589   2.417  0.3825 -0.0430  0.2431
   88CHL      H  620   0.184   1.710   2.488  0.3137  0.6210 -0.8640
   89CHL     CL  621   2.615   1.068   0.906  0.0771  0.0681  0.0082
   89CHL      C  622   2.653   0.972   0.762 -0.8347  0.2477  0.3570
   89CHL    CL1  623   2.504   0.932   0.677  0.3537  0.1274  0.3159
   89CHL    CL2  624   2.755   1.071   0.666  0.2410  0.1559 -0.1938
   89CHL      H  625   2.710   0.883   0.793 -0.5924  0.7793  1.5115
   90CHL     CL  626   1.227   4.212   0.346  0.0350  0.1090 -0.0696
   90CHL      C  627   1.139   4.075   0.279 -0.4096 -0.3749  0.4724
   90CHL    CL1  628   1.243   3.994   0.153 -0.0654 -0.2521 -0.1283
   90CHL    CL2  629   1.088   3.962   0.404 -0.2195 -0.2165 -0.0470
   90CHL      H  630   1.049   4.104   0.225  0.9254 -0.9870 -2.2182
   91CHL     CL  631   2.260   0.491   0.274 -0.3664  0.3832 -0.1982
   91CHL      C  632   2.189   0.663   0.299 -0.4750 -0.2394 -0.9792
   91CHL    CL1  633   2.057   0.692   0.191  0.1080  0.2557  0.4387
   91CHL    CL2  634   2.126   0.688   0.462  0.1208 -0.3918  0.3026
   91CHL      H  635   2.268   0.737   0.280 -0.7480 -0.2247 -2.1341
   92CHL     CL  636   1.593   0.290   0.278  0.1685  0.6400 -0.0212
   92CHL      C  637   1.599   0.468   0.318 -0.1731  0.5904 -0.5522
   92CHL    CL1  638   1.753   0.532   0.264  0.1548  0.3529  0.0033
   92CHL    CL2  639   1.464   0.554   0.248 -0.1001 -0.2650  0.2690
   92CHL      H  640   1.594   0.476   0.428 -0.9184 -1.2848 -0.4127
   93CHL     CL  641   4.239   1.950   1.360 -0.0626  0.3114  0.6587
   93CHL      C  642   4.330   2.053   1.474 -0.1688  0.0561 -0.3611
   93CHL    CL1  643   4.265   2.219   1.488 -0.2047  0.0646 -0.2606
   93CHL    CL2  644   4.340   1.975   1.637  0.2574  0.2356 -0.1229
   93CHL      H  645   4.432   2.073   1.440 -1.3036  1.7977 -3.1602
   94CHL     CL  646   0.825   0.411   1.188  0.3126 -0.1186 -0.0055
   94CHL      C  647   0.761   0.553   1.268  0.0216 -0.1039  0.9580
   94CHL    CL1  648   0.905   0.666   1.297  0.2962  0.3812 -0.6585
   94CHL    CL2  649   0.634   0.642   1.169  0.0513  0.1131  0.4043
   94CHL      H  650   0.720   0.516   1.362  0.7490 -1.2879  0.8321
   95CHL     CL  651   3.973   4.294   1.413  0.3710  0.5928  0.1658
   95CHL      C  652   4.117   4.304   1.316  0.2399  0.5239 -0.0073
   95CHL    CL1  653   4.244   4.185   1.379 -0.2450 -0.2158 -0.1987
   95CHL    CL2  654   4.091   4.274   1.138 -0.3688  0.0810 -0.0567
   95CHL      H  655   4.144   4.408   1.335  1.6811  0.0396  0.7632
   96CHL     CL  656   1.552   1.182   2.774  0.2083 -0.1542  0.0362
   96CHL      C  657   1.714   1.221   2.697  0.4015  0.2084  0.3449
   96CHL    CL1  658   1.845   1.111   2.738  0.4054 -0.3983  0.2229
   96CHL    CL2  659   1.682   1.230   2.517 -0.2874  0.0734  0.0989
   96CHL      H  660   1.733   1.319   2.741 -1.2145  0.8173 -0.2117
   97CHL     CL  661   3.373   0.005   0.725  0.0812 -0.3278  0.3348
   97CHL      C  662   3.231   0.062   0.821 -0.5058  0.4550 -0.0386
   97CHL    CL1  663   3.275   0.204   0.916 -0.0930  0.0902 -0.6489
   97CHL    CL2  664   3.097   0.096   0.709  0.1009 -0.0173 -0.0462
   97CHL      H  665   3.197  -0.017   0.890 -0.9087  1.3158  0.7682
   98CHL     CL  666   1.532   1.884   1.130 -0.2716  0.2344  0.1619
   98CHL      C  667   1.480   1.725   1.060  0.5127 -0.5999  0.2780
   98CHL    CL1  668   1.607   1.597   1.063 -0.0537  0.0051 -0.4358
   98CHL    CL2  669   1.340   1.652   1.143 -0.1406 -0.1303 -0.1944
   98CHL      H  670   1.442   1.751   0.960 -0.8616 -0.6740  0.7597
   99CHL     CL  671   3.401   0.793   2.551 -0.2173  0.3779 -0.6533
   99CHL      C  672   3.462   0.812   2.378 -0.4198 -0.0847 -0.5038
   99CHL    CL1  673   3.620   0.903   2.364  0.5368  0.1776  0.4280
   99CHL    CL2  674   3.492   0.646   2.312 -0.1392  0.1856  0.0666
   99CHL      H  675   3.387   0.861   2.315  0.5958  1.9151 -0.2198
  100CHL     CL  676   3.610   4.373   1.204 -0.1743  0.1018 -0.1159
  100CHL      C  677   3.594   4.217   1.128 -0.2110  0.4376  0.8222
  100CHL    CL1  678   3.436   4.202   1.041 -0.2460  0.0483 -0.0387
  100CHL    CL2  679   3.717   4.179   1.003  0.2865 -0.1777 -0.0535
  100CHL      H  680   3.592   4.134   1.200 -0.0097 -1.2881 -1.0536
  101CHL     CL  681   0.817   3.431   0.347  0.3069 -0.2951  0.2378
  101CHL      C  682   0.791   3.520   0.489 -0.6493  0.1155 -0.5720
  101CHL    CL1  683   0.632   3.482   0.546  0.3779 -0.2316  0.0436
  101CHL    CL2  684   0.912   3.468   0.612 -0.1949 -0.4054 -0.1836
  101CHL      H  685   0.801   3.628   0.474  0.5447 -0.0369 -0.9890
  102CHL     CL  686   1.413   0.816   1.097  0.2155 -0.0557  0.3910
  102CHL      C  687   1.281   0.834   1.227  0.2820 -0.3934 -0.5831
  102CHL    CL1  688   1.311   0.707   1.343  0.1492  0.1587 -0.0244
  102CHL    CL2  689   1.305   0.985   1.320  0.0060 -0.1487 -0.1816
  102CHL      H  690   1.178   0.825   1.190 -0.3779  0.6283  0.9108
  103CHL     CL  691   2.178   3.468   0.738  0.3025 -0.0679  0.3261
  103CHL      C  692   2.082   3.605   0.815  0.4522  0.2700  0.0446
  103CHL    CL1  693   2.199   3.738   0.870  0.1871 -0.0647  0.0941
  103CHL    CL2  694   1.979   3.679   0.682  0.0106  0.2706 -0.0210
  103CHL      H  695   2.028   3.574   0.906  2.1560  0.8354  1.3017
  104CHL     CL  696   0.313   3.628   0.537  0.2975  0.2530  0.2772
  104CHL      C  697   0.296   3.459   0.470 -0.2537  1.2104  0.5119
  104CHL    CL1  698   0.125   3.407   0.484  0.3487 -0.3325 -0.2062
  104CHL    CL2  699   0.347   3.447   0.303 -0.2708  0.1896 -0.2937
  104CHL      H  700   0.351   3.379   0.518  0.3130  0.5363 -1.1931
  105CHL     CL  701   1.155   3.646   3.015 -0.3301  0.1565 -0.2251
  105CHL      C  702   1.166   3.719   2.845  0.1202  0.1152 -0.1930
  105CHL    CL1  703   1.296   3.649   2.753  0.0257  0.2702 -0.1574
  105CHL    CL2  704   1.012   3.694   2.759 -0.1888  0.1608  0.0810
  105CHL      H  705   1.188   3.826   2.858 -0.1520  0.0668  0.8016
  106CHL     CL  706   1.182   1.583   0.578  0.5574  0.0514  0.0118
  106CHL      C  707   1.265   1.710   0.657 -0.9512  0.2314 -0.4124
  106CHL    CL1  708   1.170   1.780   0.797  0.0205  0.0651  0.2348
  106CHL    CL2  709   1.414   1.639   0.721 -0.0954 -0.0731 -0.2950
  106CHL      H  710   1.285   1.794   0.590  0.0114 -0.2998 -0.8150
  107CHL     CL  711   3.132   3.200   1.265  0.3448  0.4844 -0.2814
  107CHL      C  712   3.177   3.090   1.141  0.1427 -0.1271  0.2816
  107CHL    CL1  713   3.058   2.977   1.100  0.3281 -0.1983 -0.0455
  107CHL    CL2  714   3.237   3.178   1.002  0.0382 -0.1736 -0.3459
  107CHL      H  715   3.258   3.030   1.184  0.1984 -0.5021 -0.3347
  108CHL     CL  716   1.659   1.692   1.819 -0.1159  0.0747 -0.0803
  108CHL      C  717   1.732   1.545   1.750 -1.0372  0.3200  0.1438
  108CHL    CL1  718   1.805   1.580   1.588 -0.1265 -0.1172  0.2749
  108CHL    CL2  719   1.870   1.501   1.860 -0.3297 -0.1354 -0.1289
  108CHL      H  720   1.658   1.465   1.751 -1.5028  0.6839 -1.4165
  109CHL     CL  721   1.841   2.468   2.661 -0.0922 -0.1686 -0.3476
  109CHL      C  722   2.007   2.500   2.725 -0.0378  0.0778 -0.2448
  109CHL    CL1  723   2.097   2.347   2.726 -0.2832 -0.1836  0.0104
  109CHL    CL2  724   2.077   2.622   2.609 -0.0566 -0.1529 -0.1639
  109CHL      H  725   2.005   2.541   2.827 -0.0251 -1.1250  0.2519
  110CHL     CL  726   1.001   1.826   1.164 -0.2706 -0.2347 -0.1758
  110CHL      C  727   0.962   1.934   1.308 -0.2812  0.1971  0.0715
  110CHL    CL1  728   0.908   2.093   1.244 -0.0097  0.0720 -0.3885
  110CHL    CL2  729   0.844   1.865   1.418  0.1439 -0.0489  0.3551
  110CHL      H  730   1.052   1.952   1.368 -0.3005  0.0217  0.1531
  111CHL     CL  731   2.209   0.899   2.039  0.2755 -0.3821 -0.3225
  111CHL      C  732   2.045   0.859   1.982  0.0520  0.0134 -0.2910
  111CHL    CL1  733   2.054   0.715   1.882  0.2997 -0.2228 -0.0968
  111CHL    CL2  734   1.946   0.842   2.134 -0.3095 -0.6303 -0.0811
  111CHL      H  735   2.009   0.946   1.926  0.0175 -0.1965 -0.5959
  112CHL     CL  736   0.739   3.649   3.987 -0.2617 -0.0595 -0.2672
  112CHL      C  737   0.580   3.667   3.908 -0.5141 -0.6178  0.3161
  112CHL    CL1  738   0.530   3.495   3.872  0.0155  0.0103  0.1251
  112CHL    CL2  739   0.468   3.755   4.022 -0.1864 -0.2218  0.0718
  112CHL      H  740   0.583   3.719   3.811 -2.8204 -2.0137 -0.5648
  113CHL     CL  741   1.370   0.062   0.602 -0.2708 -0.0474 -0.2350
  113CHL      C  742   1.279   0.209   0.652 -0.2939 -0.2024  0.1552
  113CHL    CL1  743   1.375   0.312   0.768  0.6636 -0.2955 -0.1572
  113CHL    CL2  744   1.246   0.304   0.506  0.2419 -0.0045  0.1554
  113CHL      H  745   1.186   0.174   0.697  1.3620 -2.1867  2.2539
  114CHL     CL  746   0.540   0.786   1.947 -0.2816  0.3998 -0.0441
  114CHL      C  747   0.485   0.646   1.842 -0.7787  0.1072  0.2904
  114CHL    CL1  748   0.335   0.697   1.755  0.1229  0.1181  0.1457
  114CHL    CL2  749   0.616   0.571   1.725 -0.7382  0.0698  0.3211
  114CHL      H  750   0.454   0.568   1.912 -1.6544 -0.6577 -0.9198
  115CHL     CL  751   2.675   0.013   4.312 -0.2062  0.0930 -0.1780
  115CHL      C  752   2.758  -0.088   4.426  0.0963 -0.1756 -0.0643
  115CHL    CL1  753   2.809  -0.000   4.578  0.2951  0.1349 -0.0659
  115CHL    CL2  754   2.647  -0.218   4.475  0.1763  0.1546  0.2436
  115CHL      H  755   2.843  -0.133   4.373  1.2403  0.0546  1.5038
  116CHL     CL  756   0.141   0.029   1.204  0.1435 -0.1050  0.0502
  116CHL      C  757   0.171  -0.085   1.071 -0.6250 -0.4042 -0.1007
  116CHL    CL1  758   0.085  -0.237   1.087 -0.1121 -0.2072 -0.5405
  116CHL    CL2  759   0.133  -0.007   0.916 -0.0836  0.0003  0.1217
  116CHL      H  760   0.280  -0.094   1.068 -0.4660  1.0233  0.4732
  117CHL     CL  761   3.529   3.121   2.495  0.4687  0.0650  0.0863
  117CHL      C  762   3.500   3.139   2.311 -0.4731  0.7816 -0.6514
  117CHL    CL1  763   3.335   3.084   2.273 -0.2834 -0.1520  0.0977
  117CHL    CL2  764   3.541   3.309   2.261  0.1485  0.1332  0.0227
  117CHL      H  765   3.580   3.076   2.271 -0.9190 -1.1353  1.3168
  118CHL     CL  766   2.093   4.216   0.610 -0.0651  0.4434 -0.2973
  118CHL      C  767   2.152   4.305   0.464  0.8141  0.3045  0.7481
  118CHL    CL1  768   2.008   4.376   0.378  0.0157 -0.1299  0.1993
  118CHL    CL2  769   2.267   4.438   0.513 -0.1450  0.3386 -0.0820
  118CHL      H  770   2.211   4.235   0.403  0.1673  1.7611 -1.6757
  119CHL     CL  771   4.264   2.655   3.785  0.0254  0.1659  0.0336
  119CHL      C  772   4.178   2.507   3.742  0.5034  0.8419  0.7770
  119CHL    CL1  773   4.065   2.543   3.610  0.0403 -0.0779  0.0160
  119CHL    CL2  774   4.290   2.379   3.692  0.0641  0.2096  0.0418
  119CHL      H  775   4.125   2.476   3.833  0.5287 -1.2866  0.1403
  120CHL     CL  776   3.410   3.803   0.872  0.5611  0.1251 -0.3370
  120CHL      C  777   3.491   3.768   1.035  0.3261 -0.2280  0.5453
  120CHL    CL1  778   3.417   3.630   1.118 -0.1863  0.1642  0.3516
  120CHL    CL2  779   3.662   3.737   1.010  0.3104 -0.0145  0.1088
  120CHL      H  780   3.482   3.856   1.101  1.2223  0.8613 -0.7216
  121CHL     CL  781   4.156   0.951   2.571  0.2192  0.2029  0.1398
  121CHL      C  782   4.085   0.787   2.595  1.0571 -0.2628  0.6162
  121CHL    CL1  783   4.127   0.714   2.750  0.6606  0.2661 -0.1739
  121CHL    CL2  784   3.897   0.787   2.566 -0.3235  0.2530  0.1541
  121CHL      H  785   4.122   0.726   2.512  0.5616 -0.8258  0.8052
  122CHL     CL  786   0.539   3.165   0.384  0.0849 -0.2203  0.2649
  122CHL      C  787   0.381   3.088   0.340 -0.2149 -0.0126  0.0226
  122CHL    CL1  788   0.347   3.113   0.164 -0.0162  0.0960  0.2062
  122CHL    CL2  789   0.395   2.910   0.373  0.0730  0.3700  0.4677
  122CHL      H  790   0.300   3.125   0.404 -0.0106 -0.5887  0.6240
  123CHL     CL  791   3.607   4.128   3.566 -0.3538  0.3350  0.2845
  123CHL      C  792   3.778   4.124   3.633 -0.8820 -0.5612  0.1037
  123CHL    CL1  793   3.773   4.052   3.794  0.1096 -0.0267 -0.0237
  123CHL    CL2  794   3.884   4.017   3.525  0.4162 -0.3220  0.1814
  123CHL      H  795   3.810   4.229   3.636 -2.0354 -0.1265 -1.2909
  124CHL     CL  796   0.771   3.029   3.831 -0.1199  0.1383  0.1083
  124CHL      C  797   0.595   3.030   3.883 -0.8028 -0.4444  0.2690
  124CHL    CL1  798   0.485   2.956   3.767 -0.4247  0.0954 -0.0666
  124CHL    CL2  799   0.583   2.930   4.038  0.0510  0.3025 -0.5179
  124CHL      H  800   0.572   3.135   3.904 -0.0947 -0.5097  1.5041
  125CHL     CL  801   2.591   3.697   4.261  0.1033  0.0597  0.2884
  125CHL      C  802   2.682   3.706   4.417  0.0897  0.6672 -0.0012
  125CHL    CL1  803   2.594   3.638   4.562  0.0856 -0.0974 -0.2917
  125CHL    CL2  804   2.845   3.629   4.400 -0.4336 -0.2560 -0.2946
  125CHL      H  805   2.694   3.813   4.439 -1.3741  0.5324  1.7482
  126CHL     CL  806   3.495   0.844   3.774 -0.1258  0.0464  0.2524
  126CHL      C  807   3.320   0.815   3.812 -0.1142  0.1448 -0.4293
  126CHL    CL1  808   3.210   0.806   3.666  0.1329  0.1618 -0.1738
  126CHL    CL2  809   3.310   0.667   3.917  0.2258  0.1132  0.0464
  126CHL      H  810   3.280   0.895   3.876  0.0266 -0.1283  0.0032
  127CHL     CL  811   4.106   3.235   0.717  0.2745 -0.0604  0.1195
  127CHL      C  812   3.949   3.272   0.641  0.3291 -0.0857 -0.3261
  127CHL    CL1  813   3.951   3.420   0.528 -0.0334  0.1727 -0.1250
  127CHL    CL2  814   3.884   3.145   0.552 -0.6919  0.3169  0.5621
  127CHL      H  815   3.871   3.291   0.716  0.2631 -0.5939 -0.2623
  128CHL     CL  816   2.617   0.336   2.079 -0.1852 -0.3532 -0.0844
  128CHL      C  817   2.623   0.163   2.052 -0.6590  0.0443  0.0683
  128CHL    CL1  818   2.514   0.110   1.914 -0.4586 -0.2300  0.3429
  128CHL    CL2  819   2.793   0.105   2.038 -0.4062  0.2361  0.2494
  128CHL      H  820   2.580   0.111   2.138  1.3429  2.0863  2.4994
  129CHL     CL  821   2.901   3.359   0.763  0.3237 -0.1733 -0.1466
  129CHL      C  822   2.765   3.257   0.802 -0.0833 -0.6964  0.2090
  129CHL    CL1  823   2.646   3.242   0.681  0.3641  0.2244  0.0453
  129CHL    CL2  824   2.827   3.097   0.853 -0.1079  0.3031 -0.0834
  129CHL      H  825   2.708   3.291   0.888  0.9300  0.2758  0.5305
  130CHL     CL  826   0.333   3.161   2.393  0.1280  0.2071 -0.1811
  130CHL      C  827   0.302   3.255   2.248 -0.3293  0.2964  0.2255
  130CHL    CL1  828   0.410   3.396   2.236 -0.2477  0.1341 -0.3147
  130CHL    CL2  829   0.337   3.148   2.096  0.0266  0.4161 -0.2754
  130CHL      H  830   0.199   3.290   2.246 -0.9773 -1.1853  3.0465
  131CHL     CL  831   4.145   3.954   1.674  0.3289  0.1197  0.1162
  131CHL      C  832   4.139   3.825   1.803 -0.2186 -0.6727  0.1288
  131CHL    CL1  833   4.259   3.860   1.931  0.0484 -0.0486 -0.2201
  131CHL    CL2  834   3.980   3.816   1.880  0.1213 -0.0977  0.0377
  131CHL      H  835   4.165   3.730   1.754 -0.4080 -0.4988 -0.3134
  132CHL     CL  836   3.427   0.240   0.350  0.2740  0.1721 -0.0691
  132CHL      C  837   3.457   0.395   0.453  0.7928 -0.7784 -0.0359
  132CHL    CL1  838   3.396   0.371   0.623 -0.2326 -0.3247 -0.3036
  132CHL    CL2  839   3.630   0.440   0.449  0.0831  0.2118  0.2993
  132CHL      H  840   3.403   0.477   0.406  1.9537 -0.8589 -1.5792
  133CHL     CL  841   4.219   3.871   0.232  0.2275 -0.3645  0.0329
  133CHL      C  842   4.219   3.698   0.184  0.0106  0.6608 -0.2191
  133CHL    CL1  843   4.148   3.589   0.305 -0.1079 -0.3872 -0.3459
  133CHL    CL2  844   4.140   3.666   0.020  0.1175  0.4885 -0.1483
  133CHL      H  845   4.320   3.655   0.181 -0.4801 -0.6260  0.7751
  134CHL     CL  846   2.864   1.143   3.866 -0.0025 -0.2539 -0.0814
  134CHL      C  847   2.902   1.317   3.833 -0.4733 -0.8212  1.0164
  134CHL    CL1  848   2.826   1.417   3.952  0.1169  0.1086  0.0685
  134CHL    CL2  849   3.085   1.353   3.826 -0.5154  0.2561  0.1565
  134CHL      H  850   2.859   1.347   3.737  2.4728  0.1066 -0.1136
  135CHL     CL  851   2.134   0.097   2.134 -0.3112 -0.2157  0.1201
  135CHL      C  852   2.142   0.281   2.081  0.0564  0.5067  0.0467
  135CHL    CL1  853   2.258   0.324   1.953  0.0045  0.3735 -0.3942
  135CHL    CL2  854   1.982   0.350   2.033  0.1034  0.2449 -0.2537
  135CHL      H  855   2.174   0.346   2.163 -0.6072  0.8516  0.0433
  136CHL     CL  856   1.418   0.306   1.420  0.0680  0.2438  0.2534
  136CHL      C  857   1.538   0.202   1.498  0.6518 -0.9678 -0.6741
  136CHL    CL1  858   1.491   0.155   1.658 -0.1391 -0.1424  0.1944
  136CHL    CL2  859   1.560   0.065   1.398 -0.2240  0.0450  0.2296
  136CHL      H  860   1.632   0.258   1.503 -0.5372  1.0130  1.0268
  137CHL     CL  861   1.361   1.040   0.507  0.1409  0.1089  0.3807
  137CHL      C  862   1.242   1.176   0.505 -0.0685 -0.5293 -0.6572
  137CHL    CL1  863   1.343   1.317   0.509 -0.5051  0.3456  0.2512
  137CHL    CL2  864   1.144   1.172   0.353 -0.1819  0.5134  0.0635
  137CHL      H  865   1.179   1.185   0.595  0.1683  4.5902 -0.6770
  138CHL     CL  866   3.918   1.732   3.308 -0.0632  0.3710  0.3759
  138CHL      C  867   3.769   1.837   3.327 -0.2968 -0.0017 -1.2113
  138CHL    CL1  868   3.802   1.982   3.438  0.1720 -0.2139 -0.1289
  138CHL    CL2  869   3.698   1.894   3.165  0.1922  0.2584  0.0434
  138CHL      H  870   3.690   1.780   3.376 -0.0739  1.2547  0.7522
  139CHL     CL  871   1.999   3.998   2.727 -0.3898 -0.3576  0.0039
  139CHL      C  872   2.177   4.044   2.685  0.2216  0.3859 -0.0373
  139CHL    CL1  873   2.240   4.172   2.800  0.0790 -0.1026 -0.0518
  139CHL    CL2  874   2.281   3.891   2.674  0.1218  0.2103 -0.4396
  139CHL      H  875   2.170   4.086   2.584 -2.1772  1.0943  0.3497
  140CHL     CL  876   0.651   3.568   2.976  0.2776  0.0843  0.3008
  140CHL      C  877   0.485   3.580   2.958 -0.1120 -0.2870  0.0650
  140CHL    CL1  878   0.404   3.617   3.116  0.1756 -0.0687  0.1979
  140CHL    CL2  879   0.435   3.700   2.837 -0.0285  0.8196  0.0459
  140CHL      H  880   0.442   3.483   2.932 -1.2007 -0.7774  3.2006
  141CHL     CL  881   2.857   1.007   2.942 -0.1512  0.2672 -0.1868
  141CHL      C  882   2.722   1.125   2.908 -0.1402  0.0574  0.9282
  141CHL    CL1  883   2.605   1.136   3.038 -0.3272  0.0756  0.0769
  141CHL    CL2  884   2.783   1.293   2.883 -0.1377 -0.0144 -0.4391
  141CHL      H  885   2.667   1.101   2.816 -0.3755 -1.4320  1.4323
  142CHL     CL  886   3.318   3.890   1.668  0.2140 -0.0616 -0.1007
  142CHL      C  887   3.266   3.798   1.518 -0.0984 -0.2344  0.0069
  142CHL    CL1  888   3.081   3.788   1.530  0.3722  0.1934  0.0015
  142CHL    CL2  889   3.310   3.895   1.373  0.0007  0.0586 -0.3040
  142CHL      H  890   3.296   3.693   1.514 -0.7052 -0.3797 -1.6809
  143CHL     CL  891   2.129   0.739   3.856  0.2057 -0.1940  0.2198
  143CHL      C  892   2.016   0.624   3.765  0.1801  0.0571 -0.2987
  143CHL    CL1  893   1.972   0.681   3.607  0.0947 -0.2113 -0.0846
  143CHL    CL2  894   2.102   0.460   3.741 -0.3599 -0.3444 -0.1316
  143CHL      H  895   1.935   0.606   3.837  2.2492  2.4178  2.8755
  144CHL     CL  896   4.373   3.769   1.384  0.0476 -0.1910 -0.2254
  144CHL      C  897   4.479   3.901   1.317 -0.2411  0.3081  1.1858
  144CHL    CL1  898   4.558   4.017   1.437  0.2566 -0.0699 -0.1569
  144CHL    CL2  899   4.602   3.816   1.210  0.0230 -0.6301 -0.3165
  144CHL      H  900   4.405   3.960   1.261  0.9204  0.3794 -0.3229
  145CHL     CL  901   0.301   3.789   0.248  0.3607 -0.4486  0.2408
  145CHL      C  902   0.350   3.801   0.078  0.2771 -0.4532 -0.8610
  145CHL    CL1  903   0.335   3.970   0.011  0.2617 -0.3375 -0.0226
  145CHL    CL2  904   0.544   3.750   0.061 -0.0147  0.0820 -0.4845
  145CHL      H  905   0.278   3.737   0.026 -0.0889 -1.0965  0.3919
  146CHL     CL  906   2.793   1.451   3.200  0.0836 -0.5152  0.2809
  146CHL      C  907   2.721   1.466   3.358  0.1397 -0.9205 -0.2418
  146CHL    CL1  908   2.603   1.332   3.384  0.2527 -0.6087  0.0566
  146CHL    CL2  909   2.852   1.450   3.484  0.4781  0.0688  0.1761
  146CHL      H  910   2.670   1.562   3.372  1.9679 -0.1497  1.5791
  147CHL     CL  911   4.317   4.125   4.195 -0.1834  0.0247  0.1867
  147CHL      C  912   4.400   4.124   4.028 -0.2973  0.0915  0.3255
  147CHL    CL1  913   4.473   4.274   3.978 -0.2420  0.0159 -0.1096
  147CHL    CL2  914   4.527   3.997   4.031 -0.3392  0.0651 -0.0816
  147CHL      H  915   4.321   4.101   3.956  0.0663  0.7151 -0.2744
  148CHL     CL  916   0.038   2.156   0.039 -0.1144  0.2730 -0.7167
  148CHL      C  917   0.188   2.247   0.052 -0.6779 -0.0091  0.0011
  148CHL    CL1  918   0.216   2.350  -0.093 -0.1387  0.2874 -0.0049
  148CHL    CL2  919   0.206   2.345   0.208  0.0667  0.2644 -0.2049
  148CHL      H  920   0.273   2.177   0.047  0.4495  1.3266 -0.1044
  149CHL     CL  921   2.597   2.103   3.992  0.1900  0.0605 -0.0108
  149CHL      C  922   2.547   2.266   4.017 -0.6219  0.3968  0.0158
  149CHL    CL1  923   2.605   2.333   4.169 -0.1404  0.1138  0.0742
  149CHL    CL2  924   2.599   2.369   3.876  0.0716  0.0087 -0.1573
  149CHL      H  925   2.440   2.265   4.036 -0.5010  0.0800  0.7113
  150CHL     CL  926   3.395   1.275   1.598 -0.3223 -0.0941  0.0836
  150CHL      C  927   3.238   1.214   1.538  0.0440  0.3088 -0.0891
  150CHL    CL1  928   3.245   1.028   1.520 -0.0285  0.1738  0.3512
  150CHL    CL2  929   3.108   1.249   1.659  0.1330  0.0357 -0.1107
  150CHL      H  930   3.226   1.254   1.437  1.4585 -0.7379 -0.7036
  151CHL     CL  931   1.265   0.335   3.378 -0.2145  0.0776 -0.1306
  151CHL      C  932   1.371   0.452   3.439  0.0439 -0.5406  0.7164
  151CHL    CL1  933   1.268   0.599   3.460  0.0308 -0.0670 -0.0985
  151CHL    CL2  934   1.431   0.392   3.601  0.1590 -0.2098 -0.2615
  151CHL      H  935   1.447   0.477   3.364 -0.7451  0.9145  0.3564
  152CHL     CL  936   2.341   3.802   1.424 -0.1639  0.1235  0.5032
  152CHL      C  937   2.442   3.698   1.531 -0.2064  0.0958 -0.3993
  152CHL    CL1  938   2.570   3.626   1.428  0.1179  0.2762  0.1044
  152CHL    CL2  939   2.529   3.792   1.654 -0.3086  0.0611 -0.0315
  152CHL      H  940   2.385   3.620   1.583 -2.0494  1.0931 -0.8218
  153CHL     CL  941   0.345   1.704   1.619 -0.2342  0.1095 -0.1631
  153CHL      C  942   0.377   1.615   1.463  0.0902  0.8136  0.0446
  153CHL    CL1  943   0.243   1.647   1.344 -0.0947  0.8086 -0.2423
  153CHL    CL2  944   0.536   1.659   1.390 -0.3330  0.4112  0.4926
  153CHL      H  945   0.386   1.511   1.495  0.2517  0.9989  0.6153
  154CHL     CL  946   2.643   2.632   0.001  0.0218 -0.1664  0.1694
  154CHL      C  947   2.548   2.763  -0.087 -0.3431 -1.1800 -0.3781
  154CHL    CL1  948   2.442   2.693  -0.222 -0.6962 -0.1634  0.1943
  154CHL    CL2  949   2.448   2.850   0.030  0.0631  0.2774  0.1022
  154CHL      H  950   2.621   2.836  -0.123 -2.6243  0.6033 -1.6848
  155CHL     CL  951   0.882   3.074   3.434  0.0495  0.2448 -0.1244
  155CHL      C  952   0.721   3.006   3.477  0.0988 -0.2532 -0.4278
  155CHL    CL1  953   0.598   3.056   3.361  0.0702 -0.1661  0.0587
  155CHL    CL2  954   0.752   2.832   3.447  0.2824 -0.1254 -0.0972
  155CHL      H  955   0.687   3.039   3.575  0.7807  1.1727 -0.6415
  156CHL     CL  956   0.847   0.095   2.798  0.2918 -0.2235 -0.1250
  156CHL      C  957   0.871   0.242   2.697  0.0830 -0.6738  0.2550
  156CHL    CL1  958   0.720   0.341   2.692  0.1420 -0.1086  0.0041
  156CHL    CL2  959   0.991   0.349   2.774 -0.0981 -0.0116 -0.0711
  156CHL      H  960   0.902   0.222   2.594  2.1762  2.1385  0.2189
  157CHL     CL  961   0.177   4.300   3.514  0.0523 -0.5445 -0.2245
  157CHL      C  962   0.229   4.238   3.353 -0.9102  0.5576 -0.1475
  157CHL    CL1  963   0.251   4.058   3.370 -0.1123 -0.2702  0.1172
  157CHL    CL2  964   0.123   4.260   3.211  0.1038 -0.1554 -0.4032
  157CHL      H  965   0.327   4.282   3.332 -1.2828  0.6117 -1.8577
  158CHL     CL  966   2.119   0.398   1.633  0.2447 -0.2942 -0.0941
  158CHL      C  967   2.282   0.374   1.568 -0.2688  0.2768 -0.5755
  158CHL    CL1  968   2.310   0.431   1.397 -0.2197  0.1359 -0.1109
  158CHL    CL2  969   2.392   0.461   1.674  0.1517  0.3021 -0.0114
  158CHL      H  970   2.303   0.267   1.573  0.5337  0.4489  0.1578
  159CHL     CL  971   3.130   4.266   1.569 -0.4452  0.1620  0.3422
  159CHL      C  972   3.275   4.345   1.499 -0.3212  1.5556 -0.0597
  159CHL    CL1  973   3.383   4.209   1.478  0.2638 -0.3086 -0.3592
  159CHL    CL2  974   3.253   4.428   1.341  0.3826  0.1295  0.0326
  159CHL      H  975   3.324   4.418   1.564  1.6908  0.1560  0.0656
  160CHL     CL  976   0.970   4.004   4.280 -0.1537  0.0197 -0.1124
  160CHL      C  977   1.006   4.071   4.115  0.3667  0.0896 -0.4571
  160CHL    CL1  978   1.181   4.117   4.111 -0.4906  0.4892 -0.2312
  160CHL    CL2  979   0.967   3.959   3.999  0.2874  0.1266 -0.1869
  160CHL      H  980   0.944   4.161   4.112 -0.0830 -0.1768  0.5136
  161CHL     CL  981   2.838   2.606   3.979 -0.2135  0.0567  0.1048
  161CHL      C  982   2.957   2.731   3.936  0.3566 -0.6846  0.1197
  161CHL    CL1  983   2.868   2.871   3.868 -0.2527  0.2354 -0.2990
  161CHL    CL2  984   3.049   2.787   4.085 -0.1232  0.0569  0.1400
  161CHL      H  985   3.033   2.696   3.866  1.4251  0.5331  0.6349
  162CHL     CL  986   3.508   3.582   3.391 -0.1738  0.3688 -0.0566
  162CHL      C  987   3.575   3.493   3.526 -0.5852  0.3320  0.1938
  162CHL    CL1  988   3.506   3.547   3.677 -0.0559 -0.0903 -0.1011
  162CHL    CL2  989   3.552   3.312   3.501 -0.0839 -0.2341  0.5011
  162CHL      H  990   3.682   3.514   3.534 -0.3702 -0.7470  0.2690
  163CHL     CL  991   1.759   2.425   3.072 -0.4124  0.3110  0.3083
  163CHL      C  992   1.758   2.327   3.215  0.0047 -0.4168  0.0441
  163CHL    CL1  993   1.610   2.214   3.219  0.0818 -0.1612  0.1465
  163CHL    CL2  994   1.911   2.226   3.220  0.0082  0.2555  0.2514
  163CHL      H  995   1.758   2.391   3.304 -1.9902 -1.1594  0.6374
  164CHL     CL  996   1.189   0.284   3.064  0.3359 -0.3541  0.2664
  164CHL      C  997   1.265   0.124   3.064  0.4631  0.4585  0.2686
  164CHL    CL1  998   1.212   0.017   2.929  0.0641  0.1053  0.4011
  164CHL    CL2  999   1.448   0.153   3.039  0.0979 -0.0935 -0.3641
  164CHL      H 1000   1.247   0.076   3.161  1.1187 -2.6446 -1.0164
  165CHL     CL 1001   2.417   2.029   0.432  0.2659  0.5633  0.0709
  165CHL      C 1002   2.275   1.923   0.418 -0.9274 -0.1408 -0.3398
  165CHL    CL1 1003   2.261   1.871   0.245  0.3436 -0.1095 -0.2228
  165CHL    CL2 1004   2.304   1.779   0.524 -0.2637  0.3055  0.3117
  165CHL      H 1005   2.189   1.975   0.462 -1.2294 -1.5756  0.8599
  166CHL     CL 1006   1.688   4.178   4.214 -0.2250 -0.2191  0.1360
  166CHL      C 1007   1.611   4.179   4.370  0.5108 -0.2404 -0.4784
  166CHL    CL1 1008   1.695   4.271   4.496  0.1648 -0.5110 -0.5680
  166CHL    CL2 1009   1.441   4.235   4.350 -0.0542  0.3764 -0.0153
  166CHL      H 1010   1.609   4.078   4.411 -1.1491  0.3368  0.9661
  167CHL     CL 1011   2.266   2.551   1.564  0.1613  0.0468  0.2342
  167CHL      C 1012   2.178   2.462   1.430 -0.1307 -0.4171  0.6678
  167CHL    CL1 1013   2.078   2.324   1.498 -0.1107 -0.0937  0.0623
  167CHL    CL2 1014   2.073   2.576   1.329  0.0554 -0.0308 -0.1886
  167CHL      H 1015   2.259   2.424   1.367 -1.6743 -0.9005 -1.1144
  168CHL     CL 1016   1.559   0.438   2.662 -0.3259 -0.2942  0.2267
  168CHL      C 1017   1.694   0.323   2.702  0.5711 -0.2387  0.2138
  168CHL    CL1 1018   1.725   0.331   2.877 -0.0744  0.2891  0.1904
  168CHL    CL2 1019   1.643   0.168   2.631  0.3511  0.3239  0.3782
  168CHL      H 1020   1.783   0.356   2.647  2.3749 -0.8718  2.5586
  169CHL     CL 1021   0.746   4.171   0.307  0.2986  0.1803 -0.3266
  169CHL      C 1022   0.568   4.181   0.268  0.7839  0.4824  0.0631
  169CHL    CL1 1023   0.483   4.302   0.392 -0.2496  0.5639  0.0451
  169CHL    CL2 1024   0.537   4.251   0.104  0.1760  0.4910 -0.0190
  169CHL      H 1025   0.510   4.089   0.276 -1.8331  2.1782  2.5060
  170CHL     CL 1026   1.487   4.004   1.986 -0.0037  0.5871  0.1082
  170CHL      C 1027   1.544   4.082   2.135  0.4979  0.4700 -0.0868
  170CHL    CL1 1028   1.436   4.033   2.273  0.0353 -0.2771 -0.0734
  170CHL    CL2 1029   1.708   4.016   2.174  0.1081  0.0832 -0.2765
  170CHL      H 1030   1.544   4.190   2.120  0.7638  0.2556 -1.9416
  171CHL     CL 1031   1.239   3.839   0.752  0.1163 -0.2031  0.1623
  171CHL      C 1032   1.291   3.976   0.850 -0.2317  0.4364  0.4003
  171CHL    CL1 1033   1.472   3.954   0.893 -0.2014  0.4505 -0.1863
  171CHL    CL2 1034   1.254   4.132   0.767  0.0202 -0.0100  0.0952
  171CHL      H 1035   1.229   3.987   0.940 -0.1734  2.4520  0.2347
  172CHL     CL 1036   2.619   0.068   1.146  0.1675 -0.0181 -0.0962
  172CHL      C 1037   2.487   0.189   1.113  0.1699 -0.0134  0.0588
  172CHL    CL1 1038   2.551   0.355   1.115 -0.3859 -0.2464  0.1802
  172CHL    CL2 1039   2.397   0.154   0.968 -0.1774 -0.1955 -0.2685
  172CHL      H 1040   2.428   0.171   1.203 -1.1128 -0.1138 -0.7821
  173CHL     CL 1041   2.804   0.200   1.717  0.1917 -0.0184  0.0293
  173CHL      C 1042   2.803   0.295   1.564  0.1136  0.7012 -0.2146
  173CHL    CL1 1043   2.934   0.226   1.465 -0.4379  0.0089 -0.2329
  173CHL    CL2 1044   2.638   0.255   1.481  0.2107 -0.5490 -0.3668
  173CHL      H 1045   2.811   0.404   1.575 -0.7196  0.8460 -0.8809
  174CHL     CL 1046   2.903   2.287   2.514 -0.4971  0.0621 -0.4421
  174CHL      C 1047   3.034   2.366   2.423 -0.4393  0.6940  0.1576
  174CHL    CL1 1048   3.162   2.419   2.518  0.0860  0.3425  0.0097
  174CHL    CL2 1049   3.092   2.240   2.309 -0.3140  0.2147 -0.3024
  174CHL      H 1050   2.998   2.447   2.359  1.3447  1.8634  0.5401
  175CHL     CL 1051   2.392   3.848   3.432  0.0223  0.0539  0.5364
  175CHL      C 1052   2.535   3.753   3.494 -0.2395 -0.2844  0.1784
  175CHL    CL1 1053   2.642   3.689   3.359  0.2619  0.0254  0.2801
  175CHL    CL2 1054   2.638   3.838   3.615  0.0116  0.3611 -0.0182
  175CHL      H 1055   2.506   3.658   3.541  3.5996 -2.2642 -1.0447
  176CHL     CL 1056   0.972   4.123   3.263 -0.0978  0.0643  0.0668
  176CHL      C 1057   0.855   4.247   3.300  0.2297 -0.8067 -0.3560
  176CHL    CL1 1058   0.856   4.365   3.168  0.3322 -0.1440  0.6465
  176CHL    CL2 1059   0.689   4.195   3.334 -0.0504  0.1199  0.1805
  176CHL      H 1060   0.893   4.301   3.388  0.0410 -1.5335  0.1830
  177CHL     CL 1061   1.759   1.832   2.135  0.0078  0.1159  0.4328
  177CHL      C 1062   1.888   1.728   2.201 -0.4119 -0.4499  0.3743
  177CHL    CL1 1063   1.959   1.798   2.353  0.4981 -0.2342  0.0216
  177CHL    CL2 1064   1.843   1.550   2.212  0.1494  0.3722 -0.2281
  177CHL      H 1065   1.964   1.741   2.123 -0.7330  2.6748  0.4670
  178CHL     CL 1066   1.941   0.005   2.387 -0.0300 -0.2821 -0.0198
  178CHL      C 1067   2.067   0.120   2.453  0.2251  0.3737  0.7308
  178CHL    CL1 1068   2.014   0.287   2.457  0.2689  0.0220  0.0565
  178CHL    CL2 1069   2.129   0.067   2.614  0.0512  0.0571 -0.3480
  178CHL      H 1070   2.154   0.124   2.386 -0.1529 -0.6690  0.1649
  179CHL     CL 1071   3.570   2.641   0.731  0.0800 -0.2719 -0.6018
  179CHL      C 1072   3.507   2.813   0.715 -0.4436 -0.5483 -0.1480
  179CHL    CL1 1073   3.482   2.893   0.878  0.2295 -0.1253 -0.2244
  179CHL    CL2 1074   3.635   2.901   0.622 -0.0138 -0.0009  0.2732
  179CHL      H 1075   3.415   2.816   0.656 -0.7644  2.3664  0.3825
  180CHL     CL 1076   2.296   0.442   0.759  0.3385 -0.3556  0.3994
  180CHL      C 1077   2.410   0.509   0.639 -0.4696 -0.3264  0.4037
  180CHL    CL1 1078   2.547   0.596   0.705 -0.2024  0.2318  0.1239
  180CHL    CL2 1079   2.472   0.392   0.516  0.0226 -0.5589 -0.1955
  180CHL      H 1080   2.349   0.578   0.579 -1.7205 -1.6255  0.1304
  181CHL     CL 1081   1.825   2.760   3.666 -0.2659 -0.3570  0.2430
  181CHL      C 1082   1.873   2.892   3.780  0.4262 -0.2134  0.0247
  181CHL    CL1 1083   1.956   3.022   3.699  0.1809 -0.4648  0.2220
  181CHL    CL2 1084   1.727   2.960   3.853 -0.0508  0.4097 -0.1708
  181CHL      H 1085   1.937   2.859   3.862 -0.8742  2.1363  2.1105
  182CHL     CL 1086   0.118   1.346   0.631 -0.4796 -0.1403 -0.2905
  182CHL      C 1087  -0.029   1.356   0.522 -0.3439 -0.2780 -0.1305
  182CHL    CL1 1088  -0.182   1.376   0.621  0.4148  0.1145  0.2130
  182CHL    CL2 1089  -0.017   1.490   0.405  0.3441 -0.1222 -0.1440
  182CHL      H 1090  -0.041   1.258   0.474 -1.2922  0.3554 -1.2382
  183CHL     CL 1091   2.009   3.373   1.967  0.0779 -0.0507 -0.0281
  183CHL      C 1092   2.020   3.290   2.126 -0.1798 -0.9311 -0.3598
  183CHL    CL1 1093   2.176   3.222   2.155 -0.1473 -0.0430  0.1792
  183CHL    CL2 1094   1.995   3.406   2.264  0.2108  0.3658 -0.0914
  183CHL      H 1095   1.943   3.212   2.136  0.9041 -1.8470  1.5044
  184CHL     CL 1096   3.493   2.838   4.013  0.0328  0.0561  0.3834
  184CHL      C 1097   3.487   2.670   4.073 -0.4544  0.6608  0.3469
  184CHL    CL1 1098   3.486   2.662   4.252  0.2826 -0.4127  0.5134
  184CHL    CL2 1099   3.348   2.570   3.997  0.3338 -0.0133  0.0575
  184CHL      H 1100   3.578   2.622   4.037 -1.0218  0.5195 -0.9556
  185CHL     CL 1101   4.098   4.202   3.816  0.3514 -0.4415  0.3040
  185CHL      C 1102   4.193   4.288   3.696 -0.0723  0.3644 -0.2163
  185CHL    CL1 1103   4.233   4.176   3.554 -0.3679 -0.1582 -0.1624
  185CHL    CL2 1104   4.096   4.431   3.627  0.3129 -0.5869  0.3738
  185CHL      H 1105   4.280   4.320   3.754  0.7178 -1.2951 -0.4013
  186CHL     CL 1106   1.548   0.283   1.987 -0.0538 -0.0775  0.2076
  186CHL      C 1107   1.557   0.176   2.129 -0.0669  0.3097 -0.1826
  186CHL    CL1 1108   1.734   0.141   2.173 -0.1204 -0.2868  0.2027
  186CHL    CL2 1109   1.486   0.261   2.278 -0.3538 -0.1342 -0.3564
  186CHL      H 1110   1.509   0.079   2.113 -0.3826  0.6290 -1.2718
  187CHL     CL 1111   1.690   2.138   4.295 -0.8426  0.0800 -0.0151
  187CHL      C 1112   1.556   2.098   4.182  0.5584 -0.0196 -0.1621
  187CHL    CL1 1113   1.604   2.145   4.016 -0.3532  0.1314 -0.3640
  187CHL    CL2 1114   1.510   1.923   4.188  0.0258  0.1330 -0.3251
  187CHL      H 1115   1.466   2.157   4.203  0.2103  0.9946 -3.9243
  188CHL     CL 1116   1.179   3.245   0.468 -0.0861 -0.2449 -0.4609
  188CHL      C 1117   1.193   3.193   0.295  0.4441  0.3997  0.1224
  188CHL    CL1 1118   1.353   3.212   0.222  0.0034 -0.0957  0.2337
  188CHL    CL2 1119   1.139   3.025   0.284 -0.4251 -0.3405  0.0677
  188CHL      H 1120   1.120   3.254   0.243 -0.6890 -1.2747 -0.3072
  189CHL     CL 1121   2.953   2.074   3.939 -0.1583  0.4607  0.1362
  189CHL      C 1122   3.080   1.966   4.009  0.2018 -0.2780 -0.1133
  189CHL    CL1 1123   3.211   2.054   4.099  0.2154  0.2477 -0.0657
  189CHL    CL2 1124   3.007   1.860   4.137  0.1692 -0.2183 -0.4136
  189CHL      H 1125   3.129   1.905   3.932  2.9690 -0.0342  1.3499
  190CHL     CL 1126   0.731   2.415   0.004 -0.0397 -0.2743  0.5046
  190CHL      C 1127   0.710   2.425  -0.174 -0.1467  0.2174 -0.0822
  190CHL    CL1 1128   0.562   2.335  -0.226  0.2840 -0.0395 -0.6247
  190CHL    CL2 1129   0.712   2.590  -0.241 -0.0722  0.0868  0.0788
  190CHL      H 1130   0.790   2.369  -0.224  2.2135  2.3338  1.1196
  191CHL     CL 1131   0.222   1.272   2.266  0.1014 -0.1231 -0.2628
  191CHL      C 1132   0.099   1.257   2.399 -0.4388  0.6163 -0.1846
  191CHL    CL1 1133  -0.001   1.392   2.431 -0.5297 -0.5833  0.4351
  191CHL    CL2 1134  -0.004   1.108   2.365  0.1765  0.2952  0.0884
  191CHL      H 1135   0.152   1.237   2.492  0.2618  0.1024 -0.6814
  192CHL     CL 1136   3.948   4.117   0.225  0.6097  0.3638  0.3232
  192CHL      C 1137   3.920   4.227   0.087 -0.8083 -0.9211 -0.2186
  192CHL    CL1 1138   3.781   4.355   0.130 -0.1443 -0.0943 -0.0687
  192CHL    CL2 1139   4.065   4.326   0.061 -0.0853  0.2023  0.0132
  192CHL      H 1140   3.890   4.174  -0.004  0.0390 -1.4357 -0.2098
  193CHL     CL 1141   2.200   1.828   2.702  0.1435 -0.2998 -0.4334
  193CHL      C 1142   2.326   1.729   2.613 -0.5897 -0.7700  0.0666
  193CHL    CL1 1143   2.473   1.712   2.717  0.1479  0.6962  0.0519
  193CHL    CL2 1144   2.259   1.577   2.553  0.2853 -0.2020 -0.2111
  193CHL      H 1145   2.360   1.786   2.526  0.0735 -0.5810  0.4435
  194CHL     CL 1146   3.993   0.429   3.250 -0.1264  0.0336  0.2793
  194CHL      C 1147   3.929   0.268   3.219 -0.3791  0.1522  0.1719
  194CHL    CL1 1148   4.009   0.151   3.334  0.3542  0.1342  0.0442
  194CHL    CL2 1149   3.748   0.259   3.246 -0.0774  0.0579 -0.1759
  194CHL      H 1150   3.961   0.240   3.118 -0.4976  0.6956 -0.0181
  195CHL     CL 1151   3.333   4.270   0.255 -0.1361 -0.1503 -0.0903
  195CHL      C 1152   3.319   4.392   0.125 -0.8401 -0.3683  0.3999
  195CHL    CL1 1153   3.383   4.323  -0.035 -0.3225  0.2886  0.1020
  195CHL    CL2 1154   3.151   4.442   0.104  0.0174  0.0474 -0.1963
  195CHL      H 1155   3.374   4.474   0.171  0.7468 -1.4012  0.4178
  196CHL     CL 1156   3.141   3.130   3.996 -0.2057  0.5012 -0.3017
  196CHL      C 1157   3.265   3.091   3.872  0.2525 -0.1286  0.3048
  196CHL    CL1 1158   3.196   2.955   3.772 -0.0102 -0.3919  0.1930
  196CHL    CL2 1159   3.301   3.234   3.771 -0.0663 -0.0746  0.3728
  196CHL      H 1160   3.361   3.052   3.905  0.4428 -0.6614 -0.8548
  197CHL     CL 1161   2.733   0.487   3.485  0.1407 -0.2213 -0.5649
  197CHL      C 1162   2.576   0.399   3.455  0.4044 -0.2481 -0.0897
  197CHL    CL1 1163   2.445   0.522   3.400 -0.1951 -0.1866 -0.3234
  197CHL    CL2 1164   2.596   0.271   3.336 -0.3211  0.8075 -0.0352
  197CHL      H 1165   2.542   0.345   3.543  1.1580  1.8238  1.5492
  198CHL     CL 1166   2.738   0.636   2.336 -0.3165  0.4958 -0.1406
  198CHL      C 1167   2.857   0.765   2.382 -0.4551 -0.1655  0.9473
  198CHL    CL1 1168   2.810   0.830   2.542  0.2071  0.1276  0.2212
  198CHL    CL2 1169   3.032   0.712   2.387  0.2804 -0.1777  0.2382
  198CHL      H 1170   2.859   0.846   2.309  2.3805  0.8230  1.9899
  199CHL     CL 1171   1.061   2.045   1.685  0.0207  0.1606 -0.0921
  199CHL      C 1172   0.913   2.055   1.793 -0.0370 -0.5068 -0.4054
  199CHL    CL1 1173   0.961   2.029   1.964  0.0506 -0.1939 -0.4312
  199CHL    CL2 1174   0.828   2.209   1.764 -0.3738 -0.2792 -0.0461
  199CHL      H 1175   0.851   1.972   1.757  0.4448 -1.7795  1.5633
  200CHL     CL 1176   2.443   0.897   2.761 -0.4172  0.1947 -0.2281
  200CHL      C 1177   2.288   0.861   2.855 -0.4061  0.4035 -0.2965
  200CHL    CL1 1178   2.144   0.869   2.742  0.4006  0.1198 -0.3540
  200CHL    CL2 1179   2.299   0.691   2.913  0.5605 -0.0960  0.1053
  200CHL      H 1180   2.291   0.921   2.947  1.9457 -0.2039  0.0817
  201CHL     CL 1181   1.102   4.363   2.566 -0.1472 -0.1613 -0.1391
  201CHL      C 1182   1.273   4.309   2.608  0.5203  0.1755  0.3586
  201CHL    CL1 1183   1.260   4.142   2.679  0.2567 -0.2344 -0.0127
  201CHL    CL2 1184   1.386   4.324   2.470 -0.0381 -0.0584 -0.4211
  201CHL      H 1185   1.303   4.385   2.681  0.6284  0.7559 -0.2720
  202CHL     CL 1186   0.870   3.146   0.927  0.2476  0.0438 -0.4243
  202CHL      C 1187   0.993   3.103   0.798 -0.7353  0.7053  0.6642
  202CHL    CL1 1188   1.159   3.156   0.832 -0.2154 -0.6085 -0.4248
  202CHL    CL2 1189   0.999   2.923   0.776 -0.2471  0.4829 -0.1949
  202CHL      H 1190   0.968   3.147   0.701  0.5003  0.5051  0.2351
  203CHL     CL 1191   2.040   3.479   3.913 -0.1361 -0.2784  0.1509
  203CHL      C 1192   1.967   3.322   3.905 -0.3743 -0.1847 -0.0486
  203CHL    CL1 1193   1.951   3.267   4.068 -0.2413 -0.3084 -0.1629
  203CHL    CL2 1194   1.808   3.316   3.806 -0.0940  0.1701  0.0044
  203CHL      H 1195   2.037   3.250   3.860 -2.5178 -2.9393  0.7523
  204CHL     CL 1196   0.776   3.825   3.633  0.1140 -0.2753  0.0918
  204CHL      C 1197   0.801   3.839   3.452  0.4185  0.2700  0.6110
  204CHL    CL1 1198   0.922   3.723   3.381 -0.0554 -0.0552  0.4344
  204CHL    CL2 1199   0.642   3.819   3.362 -0.1817  0.3945  0.0975
  204CHL      H 1200   0.827   3.943   3.429  0.8378 -0.2772 -1.5865
  205CHL     CL 1201   0.998   2.660   3.682  0.0676 -0.1072 -0.6875
  205CHL      C 1202   0.827   2.595   3.671  0.5758 -0.4332  0.4004
  205CHL    CL1 1203   0.832   2.409   3.676  0.2667 -0.0138  0.4816
  205CHL    CL2 1204   0.726   2.651   3.816  0.3292  0.4170 -0.3445
  205CHL      H 1205   0.780   2.633   3.580  0.9247  0.4325  0.5679
  206CHL     CL 1206   3.400   2.042   1.415  0.2083 -0.0528 -0.2352
  206CHL      C 1207   3.389   2.012   1.584 -0.6279  0.5370  1.1679
  206CHL    CL1 1208   3.500   2.126   1.677 -0.3872 -0.2530 -0.0828
  206CHL    CL2 1209   3.216   2.022   1.628 -0.1342 -0.3955 -0.3473
  206CHL      H 1210   3.434   1.912   1.591 -1.5369 -0.0545 -0.6779
  207CHL     CL 1211   2.908   0.307   2.719 -0.0366 -0.1523  0.1633
  207CHL      C 1212   3.043   0.377   2.626 -0.0312 -1.0270  0.4011
  207CHL    CL1 1213   3.198   0.364   2.709 -0.0391  0.3322  0.5971
  207CHL    CL2 1214   3.057   0.307   2.461  0.2081  0.0553  0.2005
  207CHL      H 1215   3.029   0.484   2.608  4.0221 -0.3321  0.6083
  208CHL     CL 1216   4.268   0.599   3.500 -0.0105 -0.3359 -0.1357
  208CHL      C 1217   4.257   0.573   3.685  0.0155  0.4365  1.0272
  208CHL    CL1 1218   4.213   0.406   3.717 -0.0291 -0.1460 -0.3818
  208CHL    CL2 1219   4.420   0.590   3.750 -0.4441 -0.2268  0.3056
  208CHL      H 1220   4.183   0.644   3.723 -2.2384 -0.3168 -1.6333
  209CHL     CL 1221   2.127   4.001   1.106  0.0950 -0.3200  0.0141
  209CHL      C 1222   2.108   4.083   0.945 -0.0833 -0.2364 -0.1968
  209CHL    CL1 1223   1.970   4.000   0.856  0.0314 -0.0298 -0.5095
  209CHL    CL2 1224   2.075   4.259   0.965 -0.0986 -0.0021 -0.3046
  209CHL      H 1225   2.199   4.084   0.884 -0.3799  0.0148 -0.6478
  210CHL     CL 1226   3.930   4.173   2.926 -0.1780  0.2563 -0.4313
  210CHL      C 1227   3.820   4.298   2.848  0.4497  0.2612 -0.6034
  210CHL    CL1 1228   3.872   4.460   2.892  0.2277  0.0277 -0.1449
  210CHL    CL2 1229   3.822   4.264   2.662 -0.3234  0.0775  0.2914
  210CHL      H 1230   3.718   4.286   2.885  0.4974 -0.6098 -0.7378
  211CHL     CL 1231   2.867   1.071   3.494 -0.2543 -0.1192 -0.1817
  211CHL      C 1232   2.829   0.939   3.386 -0.0084  0.0669  0.3883
  211CHL    CL1 1233   2.974   0.852   3.354 -0.0363 -0.0172 -0.5150
  211CHL    CL2 1234   2.702   0.823   3.440  0.7139 -0.0474 -0.4078
  211CHL      H 1235   2.795   0.983   3.292  2.3095  2.8388  0.7166
  212CHL     CL 1236   3.073   1.654   1.446  0.0633  0.0172 -0.1081
  212CHL      C 1237   2.940   1.714   1.335 -1.0558  0.2611 -0.8406
  212CHL    CL1 1238   3.008   1.852   1.235  0.1043  0.0871  0.0069
  212CHL    CL2 1239   2.887   1.590   1.233 -0.0126  0.2821  0.2195
  212CHL      H 1240   2.856   1.758   1.390 -4.5789 -2.7122 -3.2914
  213CHL     CL 1241   1.535   4.061   3.421  0.1490 -0.0905 -0.3395
  213CHL      C 1242   1.463   4.048   3.258  0.1118 -0.1595  0.1717
  213CHL    CL1 1243   1.290   3.990   3.268 -0.2071 -0.1327  0.0816
  213CHL    CL2 1244   1.475   4.206   3.179 -0.1082  0.0149  0.1302
  213CHL      H 1245   1.524   3.974   3.204 -1.3335 -1.4096  0.1759
  214CHL     CL 1246   0.086   0.665   0.072  0.1757 -0.1510  0.1280
  214CHL      C 1247  -0.025   0.706  -0.068 -0.3181  0.3617 -0.2329
  214CHL    CL1 1248  -0.161   0.814  -0.014 -0.1554  0.0488  0.1276
  214CHL    CL2 1249   0.076   0.770  -0.200  0.1128 -0.2830 -0.0531
  214CHL      H 1250  -0.076   0.614  -0.100  1.1800 -0.1082 -1.3630
  215CHL     CL 1251   1.235   1.416   1.933  0.0730 -0.0461 -0.3821
  215CHL      C 1252   1.258   1.550   2.051  0.2766  0.2921 -0.1652
  215CHL    CL1 1253   1.427   1.534   2.123  0.1501  0.0238 -0.1507
  215CHL    CL2 1254   1.230   1.713   1.986  0.3359 -0.3560 -0.0142
  215CHL      H 1255   1.181   1.542   2.128  1.1560  0.4650  0.7453
  216CHL     CL 1256   0.696   3.779   2.569  0.1703 -0.4464 -0.1976
  216CHL      C 1257   0.542   3.697   2.511 -0.4046  0.3718  0.7965
  216CHL    CL1 1258   0.521   3.700   2.326  0.1408 -0.1225 -0.1271
  216CHL    CL2 1259   0.547   3.520   2.552  0.3776 -0.0542  0.1716
  216CHL      H 1260   0.454   3.749   2.551 -1.2564  0.1540 -0.7444
  217CHL     CL 1261   1.421   1.234   1.100  0.1731  0.3800  0.2550
  217CHL      C 1262   1.355   1.279   0.939  0.2259 -0.1928 -0.2766
  217CHL    CL1 1263   1.480   1.262   0.813 -0.3566 -0.0117 -0.0648
  217CHL    CL2 1264   1.217   1.176   0.898  0.0232  0.0947  0.0467
  217CHL      H 1265   1.337   1.387   0.937  1.0834 -0.0450 -0.3898
  218CHL     CL 1266   1.703   1.083   0.433  0.7518  0.0484  0.0184
  218CHL      C 1267   1.853   0.999   0.436 -0.2573  0.6973 -0.0298
  218CHL    CL1 1268   1.907   0.963   0.270 -0.2562  0.1529 -0.2096
  218CHL    CL2 1269   1.966   1.112   0.517 -0.4024  0.1801  0.0769
  218CHL      H 1270   1.867   0.906   0.494  0.9373  0.8637 -0.0283
  219CHL     CL 1271   1.765   4.087   3.013 -0.2787  0.0704 -0.1792
  219CHL      C 1272   1.736   4.245   2.930  0.4096  0.5140  0.3989
  219CHL    CL1 1273   1.898   4.320   2.881 -0.0465  0.0624  0.3435
  219CHL    CL2 1274   1.630   4.225   2.785  0.3326 -0.1598  0.2785
  219CHL      H 1275   1.688   4.316   2.998  0.2316  0.4300  0.3608
  220CHL     CL 1276   0.089   3.419   1.734  0.1423 -0.3663 -0.0179
  220CHL      C 1277   0.045   3.573   1.819  0.5173  0.4857 -0.6306
  220CHL    CL1 1278   0.113   3.587   1.997 -0.1129  0.3833 -0.1809
  220CHL    CL2 1279   0.111   3.712   1.722  0.1490 -0.6830 -0.1363
  220CHL      H 1280  -0.064   3.577   1.835  0.6550 -0.7792  0.8889
  221CHL     CL 1281   4.257   1.799   0.014 -0.0765 -0.4807 -0.6980
  221CHL      C 1282   4.349   1.658  -0.031  0.1337 -0.4097 -0.3511
  221CHL    CL1 1283   4.376   1.670  -0.208  0.4527 -0.2148 -0.0862
  221CHL    CL2 1284   4.515   1.640   0.052 -0.0348 -0.0131 -0.3216
  221CHL      H 1285   4.280   1.574  -0.014 -2.1650  1.4044 -0.1499
  222CHL     CL 1286   3.222   3.119   3.215 -0.1306 -0.1544 -0.0953
  222CHL      C 1287   3.216   3.113   3.391  0.4316 -0.3805  0.1817
  222CHL    CL1 1288   3.047   3.068   3.452 -0.2049  0.0836 -0.3662
  222CHL    CL2 1289   3.344   2.997   3.459 -0.2250 -0.1369  0.1855
  222CHL      H 1290   3.231   3.216   3.426  0.4730 -0.6086  0.8353
  223CHL     CL 1291   4.178   0.237   2.943 -0.0835 -0.2132 -0.0337
  223CHL      C 1292   4.291   0.140   3.045 -0.5485 -0.1445  0.2858
  223CHL    CL1 1293   4.228  -0.031   3.073  0.1118 -0.5214 -0.0324
  223CHL    CL2 1294   4.444   0.128   2.952 -0.3075 -0.2934 -0.1793
  223CHL      H 1295   4.311   0.187   3.142 -1.4986 -0.6010  0.7081
  224CHL     CL 1296   3.209   2.988   0.672  0.1790  0.2084  0.0362
  224CHL      C 1297   3.103   2.843   0.650  0.2452 -0.3455 -0.1358
  224CHL    CL1 1298   3.117   2.775   0.475  0.1045  0.2248  0.1660
  224CHL    CL2 1299   3.154   2.720   0.772 -0.5693 -0.1318 -0.1298
  224CHL      H 1300   2.998   2.859   0.676  0.3015  2.4178 -1.2754
  225CHL     CL 1301   0.680   3.259   4.145  0.4438 -0.2607 -0.4065
  225CHL      C 1302   0.554   3.227   4.273 -0.0519  0.1277 -0.1833
  225CHL    CL1 1303   0.562   3.358   4.400 -0.2993  0.2383  0.0015
  225CHL    CL2 1304   0.388   3.219   4.212 -0.6897 -0.3303  0.1315
  225CHL      H 1305   0.568   3.130   4.323  0.7119  0.0179 -0.5909
  226CHL     CL 1306   1.677   1.573   3.355  0.1479 -0.1674  0.2869
  226CHL      C 1307   1.789   1.704   3.293  0.5001  0.6263 -0.2876
  226CHL    CL1 1308   1.919   1.608   3.228  0.3180  0.2912 -0.2592
  226CHL    CL2 1309   1.719   1.818   3.174 -0.1871  0.2227  0.1888
  226CHL      H 1310   1.822   1.753   3.385  0.5342 -1.1077  0.6731
  227CHL     CL 1311   1.561   3.715   3.315  0.0457 -0.0631  0.2211
  227CHL      C 1312   1.679   3.640   3.208 -0.3689 -0.6150  0.0624
  227CHL    CL1 1313   1.658   3.694   3.034 -0.1254 -0.6057  0.0283
  227CHL    CL2 1314   1.844   3.681   3.274  0.3917 -0.1071 -0.0677
  227CHL      H 1315   1.661   3.533   3.223 -0.7483 -0.3959  1.2308
  228CHL     CL 1316   4.082   2.994   2.156 -0.1214 -0.0465 -0.2556
  228CHL      C 1317   4.236   2.961   2.236  0.1753  0.4973  0.0930
  228CHL    CL1 1318   4.353   3.099   2.194 -0.2340 -0.5085  0.0615
  228CHL    CL2 1319   4.214   2.938   2.410  0.0859  0.3669  0.1852
  228CHL      H 1320   4.272   2.870   2.186 -0.3703  1.1952 -1.6320
  229CHL     CL 1321   1.705   2.586   1.991 -0.1297 -0.2395  0.6800
  229CHL      C 1322   1.667   2.678   2.138  0.3086  0.3565  0.5785
  229CHL    CL1 1323   1.554   2.586   2.230  0.1682  0.0654  0.1556
  229CHL    CL2 1324   1.817   2.698   2.238  0.1938 -0.0300 -0.4966
  229CHL      H 1325   1.624   2.775   2.112  0.3723 -0.2423 -2.0626
  230CHL     CL 1326   1.598   1.580   4.049 -0.2608 -0.0989 -0.1624
  230CHL      C 1327   1.733   1.613   3.944  0.1607  0.2213  0.2598
  230CHL    CL1 1328   1.786   1.780   3.991  0.2797 -0.3319  0.2320
  230CHL    CL2 1329   1.874   1.498   3.965  0.1216  0.2659  0.1443
  230CHL      H 1330   1.710   1.624   3.837  1.9109  0.9164 -0.0792
  231CHL     CL 1331   4.242   0.278   1.342 -0.3358 -0.3105  0.2039
  231CHL      C 1332   4.267   0.432   1.244  0.6380 -0.1413 -1.0167
  231CHL    CL1 1333   4.430   0.430   1.166 -0.1343  0.4015 -0.2597
  231CHL    CL2 1334   4.142   0.448   1.110 -0.2225 -0.2528 -0.4199
  231CHL      H 1335   4.264   0.509   1.322  0.4811 -1.4852  0.3555
  232CHL     CL 1336   3.801   1.112   2.816 -0.0832  0.1202 -0.0002
  232CHL      C 1337   3.680   1.027   2.713 -0.6675 -0.0077 -0.1486
  232CHL    CL1 1338   3.633   0.867   2.798 -0.5265  0.2688 -0.0550
  232CHL    CL2 1339   3.532   1.130   2.691 -0.1036 -0.0209 -0.3115
  232CHL      H 1340   3.739   1.008   2.623  0.8678 -0.4647  0.9062
  233CHL     CL 1341   0.357   2.689   4.211 -0.2295  0.2208 -0.2648
  233CHL      C 1342   0.386   2.782   4.367  0.2432 -0.4187  0.0347
  233CHL    CL1 1343   0.240   2.756   4.478  0.5421 -0.0754  0.2665
  233CHL    CL2 1344   0.546   2.746   4.463  0.0243 -0.1345 -0.2372
  233CHL      H 1345   0.396   2.890   4.351  1.7012 -0.5682 -0.2519
  234CHL     CL 1346   2.932   1.912   3.625  0.3233 -0.4254  0.3098
  234CHL      C 1347   2.872   2.032   3.523 -1.0722 -0.1225  0.2521
  234CHL    CL1 1348   2.784   1.950   3.384  0.0371 -0.1712 -0.0665
  234CHL    CL2 1349   2.760   2.132   3.624 -0.1713  0.5908  0.0451
  234CHL      H 1350   2.948   2.102   3.488 -2.5615  0.3282 -2.3009
  235CHL     CL 1351   1.791   0.518   1.697 -0.1281 -0.1226  0.1970
  235CHL      C 1352   1.672   0.590   1.800 -0.0551 -0.2952  1.0858
  235CHL    CL1 1353   1.690   0.771   1.813  0.0830  0.0907  0.0629
  235CHL    CL2 1354   1.508   0.567   1.734  0.2628  0.6082  0.1147
  235CHL      H 1355   1.670   0.535   1.895 -0.4719 -1.2056  0.5667
  236CHL     CL 1356   2.906   1.277   2.025  0.0438  0.5097 -0.2657
  236CHL      C 1357   3.021   1.186   2.116 -0.0016  0.5668 -0.1096
  236CHL    CL1 1358   3.178   1.278   2.119  0.0806  0.1192  0.1466
  236CHL    CL2 1359   2.957   1.148   2.282  0.0969  0.2576 -0.2150
  236CHL      H 1360   3.037   1.099   2.052  1.3327 -0.2544  1.2708
  237CHL     CL 1361   2.742   4.208   3.601  0.4250  0.0019  0.1704
  237CHL      C 1362   2.928   4.214   3.622 -0.1025 -0.4435  0.7574
  237CHL    CL1 1363   3.000   4.304   3.481 -0.0858  0.3007  0.4238
  237CHL    CL2 1364   2.955   4.291   3.778 -0.2102 -0.5460 -0.0995
  237CHL      H 1365   2.963   4.111   3.634 -0.2756 -0.3349  2.4527
  238CHL     CL 1366   1.781   1.491   4.352 -0.2606  0.0394 -0.0666
  238CHL      C 1367   1.821   1.366   4.476 -0.7557  0.0726 -0.1559
  238CHL    CL1 1368   1.943   1.419   4.600  0.1695 -0.0327  0.0481
  238CHL    CL2 1369   1.672   1.319   4.560  0.2519 -0.1268  0.1268
  238CHL      H 1370   1.862   1.289   4.409  1.2908  1.0863 -0.1611
  239CHL     CL 1371   2.009   1.764   1.061  0.0602  0.3132 -0.0576
  239CHL      C 1372   2.009   1.747   1.240 -0.0614  0.4908  0.3074
  239CHL    CL1 1373   2.150   1.831   1.325 -0.0481 -0.3422 -0.3995
  239CHL    CL2 1374   1.850   1.813   1.295 -0.0217  0.0951  0.1772
  239CHL      H 1375   2.019   1.639   1.252  1.6328  0.7402  1.4641
  240CHL     CL 1376   1.491   1.259   1.641 -0.0864 -0.4012 -0.1114
  240CHL      C 1377   1.563   1.272   1.480 -0.5139 -0.7488 -0.4197
  240CHL    CL1 1378   1.530   1.438   1.413 -0.0197  0.2743  0.8115
  240CHL    CL2 1379   1.745   1.265   1.501  0.1528 -0.1043 -0.0721
  240CHL      H 1380   1.528   1.199   1.405  0.5592 -0.4318 -1.2672
  241CHL     CL 1381   1.504   1.781   1.466 -0.1712 -0.1173 -0.1098
  241CHL      C 1382   1.349   1.766   1.568 -0.2419 -0.3656  1.0731
  241CHL    CL1 1383   1.197   1.765   1.461  0.2893  0.2536  0.0313
  241CHL    CL2 1384   1.356   1.600   1.649  0.0671 -0.0981  0.2683
  241CHL      H 1385   1.336   1.842   1.646 -0.9334  0.8190 -0.1443
  242CHL     CL 1386   2.838   3.301   3.965 -0.3208  0.0252 -0.3200
  242CHL      C 1387   2.793   3.247   4.129  0.0224  0.7471 -0.9815
  242CHL    CL1 1388   2.681   3.359   4.198  0.0580 -0.0462 -0.1350
  242CHL    CL2 1389   2.725   3.085   4.120 -0.2790 -0.1159 -0.1496
  242CHL      H 1390   2.885   3.237   4.187  0.5721 -0.2050 -1.9680
  243CHL     CL 1391   4.117   0.762   0.757 -0.1246  0.4951 -0.0719
  243CHL      C 1392   4.002   0.730   0.888  0.2570 -0.0145  0.7221
  243CHL    CL1 1393   4.080   0.774   1.044 -0.4373 -0.1568 -0.2674
  243CHL    CL2 1394   3.868   0.844   0.856 -0.3057 -0.2962 -0.0118
  243CHL      H 1395   3.968   0.625   0.892  2.0194 -0.6028  1.0994
  244CHL     CL 1396   3.250   0.555   2.130  0.0434 -0.3056 -0.4192
  244CHL      C 1397   3.130   0.505   2.007 -0.2426 -0.5741  0.0645
  244CHL    CL1 1398   3.130   0.321   2.000  0.0151  0.3695  0.1895
  244CHL    CL2 1399   2.952   0.555   2.038 -0.0548  0.2924 -0.2765
  244CHL      H 1400   3.171   0.557   1.919 -1.6262  1.6242  0.6308
  245CHL     CL 1401   3.533   1.186   2.241 -0.1545  0.0725  0.4445
  245CHL      C 1402   3.508   1.358   2.278  0.0507 -0.3455 -0.4473
  245CHL    CL1 1403   3.551   1.377   2.455  0.0150 -0.1573  0.2575
  245CHL    CL2 1404   3.612   1.456   2.170 -0.1800  0.1565 -0.0418
  245CHL      H 1405   3.408   1.402   2.273  0.7924  1.5738  0.7709
  246CHL     CL 1406   0.773   1.770   0.336 -0.2331  0.0067 -0.1513
  246CHL      C 1407   0.898   1.751   0.469  0.4472  0.2242  0.3925
  246CHL    CL1 1408   0.993   1.905   0.478  0.0945 -0.1450 -0.7289
  246CHL    CL2 1409   0.838   1.720   0.631 -0.3353 -0.0118 -0.3228
  246CHL      H 1410   0.971   1.675   0.440  1.2584  0.3207  2.0763
  247CHL     CL 1411   3.503   2.196   2.487  0.0831  0.3333 -0.2022
  247CHL      C 1412   3.569   2.310   2.366  0.3670  0.9518  0.2346
  247CHL    CL1 1413   3.689   2.430   2.446  0.2679 -0.2211  0.4382
  247CHL    CL2 1414   3.655   2.220   2.241 -0.1240  0.4216  0.0352
  247CHL      H 1415   3.490   2.373   2.322  1.8160  2.7393  0.0752
  248CHL     CL 1416   1.088   0.156   4.261 -0.0340 -0.3429 -0.1666
  248CHL      C 1417   1.202   0.245   4.376  0.2778  0.0066  0.4330
  248CHL    CL1 1418   1.382   0.213   4.349  0.1157 -0.1860  0.3056
  248CHL    CL2 1419   1.197   0.421   4.354 -0.2470 -0.2345 -0.2452
  248CHL      H 1420   1.165   0.218   4.475 -2.7572  1.9761 -0.0434
  249CHL     CL 1421   0.022   2.590   4.133 -0.2732 -0.3589 -0.0812
  249CHL      C 1422  -0.101   2.468   4.200 -0.2563  0.2552  0.2135
  249CHL    CL1 1423  -0.150   2.511   4.375 -0.1236  0.1205  0.2402
  249CHL    CL2 1424  -0.241   2.455   4.094 -0.1554  0.3709 -0.0715
  249CHL      H 1425  -0.048   2.373   4.188 -0.7333  0.3090 -3.1996
  250CHL     CL 1426   3.748   2.400   1.226 -0.0945  0.1998 -0.1151
  250CHL      C 1427   3.898   2.420   1.331  0.6438  0.8362 -0.0191
  250CHL    CL1 1428   3.880   2.573   1.428  0.0814 -0.1312 -0.2002
  250CHL    CL2 1429   3.905   2.271   1.439  0.0290 -0.0481 -0.0699
  250CHL      H 1430   3.986   2.412   1.266 -0.3835  2.1695 -1.6568
  251CHL     CL 1431   3.787   0.473   1.662  0.1655  0.0512  0.0542
  251CHL      C 1432   3.904   0.400   1.546 -0.2995 -0.3150 -0.3955
  251CHL    CL1 1433   3.950   0.241   1.593 -0.0449 -0.0400 -0.0262
  251CHL    CL2 1434   3.833   0.399   1.380 -0.3244 -0.0753 -0.2207
  251CHL      H 1435   3.994   0.463   1.545 -0.9243  0.6352  0.7411
  252CHL     CL 1436   1.019   2.144   0.135 -0.2549 -0.0828 -0.0244
  252CHL      C 1437   1.120   1.988   0.114 -0.0393  0.3319 -0.4838
  252CHL    CL1 1438   1.001   1.844   0.111  0.3245 -0.0685  0.0950
  252CHL    CL2 1439   1.219   1.989  -0.039 -0.0930 -0.0419  0.0301
  252CHL      H 1440   1.184   1.982   0.203 -0.1433  2.0525 -0.2514
  253CHL     CL 1441   4.013   2.739   4.013  0.4168 -0.2265  0.0162
  253CHL      C 1442   3.920   2.790   4.158 -0.8572  0.6025  0.2438
  253CHL    CL1 1443   4.028   2.850   4.289  0.0741 -0.3124 -0.2443
  253CHL    CL2 1444   3.806   2.906   4.106 -0.0973 -0.6439 -0.4309
  253CHL      H 1445   3.863   2.706   4.199 -0.3771  0.5970  0.9279
  254CHL     CL 1446   0.526   1.965   4.281 -0.1702  0.4242 -0.0267
  254CHL      C 1447   0.578   1.838   4.394 -0.3011 -0.6800  0.6367
  254CHL    CL1 1448   0.448   1.800   4.508 -0.1875 -0.3585 -0.1831
  254CHL    CL2 1449   0.610   1.686   4.295 -0.0992 -0.1122 -0.4354
  254CHL      H 1450   0.671   1.875   4.440  0.9295 -1.8066 -0.8500
  255CHL     CL 1451   0.436   2.969   2.876 -0.0746 -0.2012  0.1403
  255CHL      C 1452   0.423   3.040   3.044  0.1481 -0.0374 -0.1220
  255CHL    CL1 1453   0.464   3.214   3.033  0.0873 -0.1657  0.4735
  255CHL    CL2 1454   0.247   3.024   3.081 -0.2767 -0.0550 -0.0272
  255CHL      H 1455   0.483   2.989   3.120 -1.0976  1.6862  2.1454
  256CHL     CL 1456   3.361   1.354   1.252 -0.0529  0.6185  0.1647
  256CHL      C 1457   3.310   1.478   1.134 -0.7066 -0.0036 -0.3588
  256CHL    CL1 1458   3.329   1.636   1.224 -0.0503  0.2894 -0.0686
  256CHL    CL2 1459   3.429   1.477   1.000 -0.0052 -0.0199 -0.0103
  256CHL      H 1460   3.213   1.452   1.090 -0.7259  1.6245 -1.3893
  257CHL     CL 1461   2.542   3.376   2.684  0.4281 -0.1836  0.1063
  257CHL      C 1462   2.715   3.394   2.708 -0.2215  1.1137 -0.1725
  257CHL    CL1 1463   2.803   3.232   2.705 -0.4740 -0.2547 -0.0270
  257CHL    CL2 1464   2.779   3.505   2.579 -0.4480 -0.0067  0.0378
  257CHL      H 1465   2.743   3.433   2.807  0.1522 -2.5287  1.3510
  258CHL     CL 1466   2.329   2.030   1.052  0.0498  0.1459 -0.0090
  258CHL      C 1467   2.486   2.123   1.024 -0.0258 -0.1155  0.1680
  258CHL    CL1 1468   2.499   2.261   1.146 -0.1815 -0.1241  0.1105
  258CHL    CL2 1469   2.624   2.009   1.043  0.1746  0.4338 -0.1458
  258CHL      H 1470   2.478   2.172   0.927 -0.2529 -1.1877 -0.3577
  259CHL     CL 1471   4.075   1.319   1.946 -0.1686 -0.3036 -0.2023
  259CHL      C 1472   4.233   1.240   1.900  0.6171 -0.5875 -0.0860
  259CHL    CL1 1473   4.283   1.312   1.744 -0.0146  0.0205 -0.1669
  259CHL    CL2 1474   4.364   1.246   2.024 -0.2276 -0.1874 -0.0072
  259CHL      H 1475   4.216   1.135   1.874 -1.2691 -0.5285  0.7212
  260CHL     CL 1476   0.729   2.649   0.710 -0.2110  0.1285 -0.4641
  260CHL      C 1477   0.637   2.764   0.600 -0.1109  0.8231  0.1679
  260CHL    CL1 1478   0.635   2.930   0.669  0.2450  0.4343 -0.3477
  260CHL    CL2 1479   0.719   2.772   0.439  0.1012  0.5271  0.1003
  260CHL      H 1480   0.537   2.724   0.584 -1.2051  3.2383  0.5781
  261CHL     CL 1481   4.320   3.685   1.018 -0.2498 -0.1022  0.1324
  261CHL      C 1482   4.312   3.500   0.987  0.2459  0.8172  0.2228
  261CHL    CL1 1483   4.162   3.427   1.071 -0.0664 -0.4134 -0.6150
  261CHL    CL2 1484   4.304   3.470   0.813  0.6784 -0.4646 -0.2682
  261CHL      H 1485   4.407   3.456   1.020 -1.3905 -1.6780  1.8622
  262CHL     CL 1486   1.375   1.039   0.084  0.1397 -0.1486 -0.1174
  262CHL      C 1487   1.462   0.883   0.066  0.3157 -0.1539 -0.1486
  262CHL    CL1 1488   1.365   0.765  -0.032 -0.0012  0.0121 -0.0422
  262CHL    CL2 1489   1.631   0.922  -0.000 -0.2668  0.7053  0.0911
  262CHL      H 1490   1.485   0.839   0.164  0.6155  2.6419  1.1256
  263CHL     CL 1491   3.025   1.756   0.910  0.2622 -0.3304 -0.0439
  263CHL      C 1492   3.065   1.727   0.734 -0.7913  0.0735 -0.4388
  263CHL    CL1 1493   3.158   1.862   0.662 -0.0155  0.2476 -0.1876
  263CHL    CL2 1494   3.138   1.573   0.704  0.2432  0.2191  0.0279
  263CHL      H 1495   2.968   1.727   0.684 -1.3415 -1.0867  0.5737
  264CHL     CL 1496   3.314   0.332   1.566 -0.1615 -0.1955 -0.0289
  264CHL      C 1497   3.477   0.337   1.493 -0.9023  0.4064  0.5937
  264CHL    CL1 1498   3.560   0.174   1.515  0.2893  0.1083  0.2416
  264CHL    CL2 1499   3.476   0.367   1.308 -0.0077 -0.3380 -0.5425
  264CHL      H 1500   3.525   0.417   1.551 -1.0010  2.0878 -1.5216
  265CHL     CL 1501   0.579   0.848   0.566  0.0717 -0.2353 -0.5602
  265CHL      C 1502   0.549   0.677   0.603 -0.7647  0.1973 -0.7682
  265CHL    CL1 1503   0.408   0.619   0.514  0.2052 -0.3779  0.3849
  265CHL    CL2 1504   0.693   0.579   0.539  0.0277  0.0582 -0.3079
  265CHL      H 1505   0.543   0.652   0.710 -0.7579 -1.6764 -1.1755
  266CHL     CL 1506   0.948   1.484   1.396 -0.2139 -0.4923  0.3067
  266CHL      C 1507   1.002   1.319   1.383 -0.3099  0.4365 -0.1429
  266CHL    CL1 1508   1.136   1.304   1.262 -0.3181 -0.0936  0.3364
  266CHL    CL2 1509   1.050   1.261   1.538 -0.6138 -0.2423 -0.0051
  266CHL      H 1510   0.914   1.261   1.354  0.6228 -0.2270 -1.8023
  267CHL     CL 1511   1.850   1.387   0.879  0.0347 -0.1785 -0.4047
  267CHL      C 1512   1.884   1.367   1.063 -0.5055 -0.1204  0.0176
  267CHL    CL1 1513   1.808   1.217   1.121 -0.6583  0.0714  0.1432
  267CHL    CL2 1514   2.063   1.377   1.096 -0.1181 -0.2759 -0.1778
  267CHL      H 1515   1.846   1.454   1.118 -0.0879  0.2541 -0.2757
  268CHL     CL 1516   3.171   1.975   3.347  0.3742 -0.1150 -0.2391
  268CHL      C 1517   3.141   2.053   3.199  0.1643 -0.3411  0.3402
  268CHL    CL1 1518   3.031   2.197   3.233  0.1997 -0.1542  0.1414
  268CHL    CL2 1519   3.302   2.121   3.137 -0.1142  0.3602 -0.4236
  268CHL      H 1520   3.089   1.990   3.126  0.4340  0.3240 -0.4351
  269CHL     CL 1521   3.365   3.864   2.494 -0.0468 -0.2499  0.0895
  269CHL      C 1522   3.514   3.915   2.409 -0.1705  0.2577 -0.0099
  269CHL    CL1 1523   3.650   3.813   2.450 -0.4136 -0.1557 -0.2933
  269CHL    CL2 1524   3.489   3.907   2.229  0.2104  0.0214  0.4878
  269CHL      H 1525   3.539   4.019   2.433  0.7412  0.1498 -0.4326
  270CHL     CL 1526   1.251   2.045   1.030  0.3075 -0.3624  0.1437
  270CHL      C 1527   1.303   2.132   0.880 -1.0254  0.0056  0.1523
  270CHL    CL1 1528   1.464   2.071   0.815 -0.2440 -0.2019 -0.1055
  270CHL    CL2 1529   1.173   2.111   0.763 -0.5580 -0.2866  0.1401
  270CHL      H 1530   1.309   2.239   0.899 -0.8710 -0.1221  0.8337
  271CHL     CL 1531   1.474   4.191   1.139  0.3036 -0.3580 -0.1166
  271CHL      C 1532   1.410   4.316   1.027  0.1750 -0.4889 -0.5619
  271CHL    CL1 1533   1.354   4.471   1.107  0.0812  0.4277 -0.3459
  271CHL    CL2 1534   1.550   4.368   0.916 -0.2478 -0.0811 -0.0889
  271CHL      H 1535   1.334   4.272   0.962 -1.3170  0.4354  0.5119
  272CHL     CL 1536   3.778   0.993   3.563  0.3115 -0.0431  0.4238
  272CHL      C 1537   3.851   0.939   3.719  0.3030 -0.5527  0.3793
  272CHL    CL1 1538   3.933   0.785   3.700 -0.5377 -0.1079 -0.1623
  272CHL    CL2 1539   3.965   1.057   3.779 -0.6794 -0.0088 -0.4024
  272CHL      H 1540   3.775   0.918   3.796 -0.7039  0.0716 -0.4166
  273CHL     CL 1541   2.092   2.442   2.307  0.1014  0.2052  0.1093
  273CHL      C 1542   1.952   2.341   2.255  0.2298 -0.7671 -1.1253
  273CHL    CL1 1543   1.926   2.339   2.080 -0.2201  0.2518 -0.0823
  273CHL    CL2 1544   1.981   2.174   2.298 -0.1576  0.0203 -0.0331
  273CHL      H 1545   1.859   2.379   2.300  1.9220  1.0375  1.1167
  274CHL     CL 1546   1.046   0.072   1.657  0.3301 -0.0686 -0.2853
  274CHL      C 1547   1.148   0.079   1.507  0.1785  0.1885 -0.0676
  274CHL    CL1 1548   1.210  -0.075   1.456  0.0645 -0.1499 -0.2651
  274CHL    CL2 1549   1.055   0.166   1.373 -0.1562  0.1332  0.4078
  274CHL      H 1550   1.236   0.142   1.523  2.2530 -1.1138 -4.7129
  275CHL     CL 1551   2.946   2.454   3.713  0.3026  0.3409  0.2561
  275CHL      C 1552   2.862   2.572   3.602 -0.3364  0.1035 -0.6921
  275CHL    CL1 1553   2.974   2.625   3.476  0.1945 -0.1143 -0.1036
  275CHL    CL2 1554   2.719   2.499   3.531 -0.1861  0.3913 -0.0839
  275CHL      H 1555   2.828   2.660   3.657 -0.9102 -0.5354  0.0019
  276CHL     CL 1556   3.215   1.130   3.549  0.0667 -0.1510 -0.0457
  276CHL      C 1557   3.241   1.095   3.370  0.2942 -0.3459 -0.3589
  276CHL    CL1 1558   3.147   1.208   3.257 -0.0304  0.0697 -0.3062
  276CHL    CL2 1559   3.419   1.120   3.345 -0.1695  0.1464  0.2107
  276CHL      H 1560   3.218   0.988   3.358  0.0754 -0.7014  2.6373
  277CHL     CL 1561   1.016   1.068   2.841  0.1018 -0.3364 -0.1749
  277CHL      C 1562   0.876   1.041   2.737  0.3520 -0.0167 -0.2644
  277CHL    CL1 1563   0.727   1.095   2.819 -0.3278 -0.0197 -0.2271
  277CHL    CL2 1564   0.884   1.099   2.564 -0.0589 -0.1211  0.0374
  277CHL      H 1565   0.869   0.932   2.724 -0.9707  0.0840 -0.5400
  278CHL     CL 1566   3.039   2.427   0.525 -0.1649 -0.4123  0.4524
  278CHL      C 1567   3.203   2.348   0.567  0.1554  0.4286 -0.1364
  278CHL    CL1 1568   3.206   2.287   0.736 -0.3343  0.0731  0.7162
  278CHL    CL2 1569   3.240   2.212   0.457  0.0602 -0.1946  0.0779
  278CHL      H 1570   3.279   2.426   0.563  0.3024  0.2863 -0.1323
  279CHL     CL 1571   0.152   3.459   4.368  0.1985 -0.0349  0.1866
  279CHL      C 1572   0.168   3.538   4.202 -0.0017  0.1588  0.3419
  279CHL    CL1 1573   0.134   3.424   4.072  0.1407 -0.2218 -0.5256
  279CHL    CL2 1574   0.045   3.682   4.196  0.1828  0.3584  0.2679
  279CHL      H 1575   0.271   3.571   4.188  0.2997 -0.6315  0.6443
  280CHL     CL 1576   4.357   2.127   2.019  0.3270  0.1182 -0.0350
  280CHL      C 1577   4.490   2.151   2.134  0.7825 -0.2767  0.0180
  280CHL    CL1 1578   4.476   2.301   2.240  0.0255  0.1401  0.3987
  280CHL    CL2 1579   4.515   2.014   2.234  0.2046 -0.2685  0.4120
  280CHL      H 1580   4.581   2.167   2.075  0.7245  4.1662  0.8537
  281CHL     CL 1581   2.802   0.383   0.534 -0.2726  0.3104 -0.2086
  281CHL      C 1582   2.853   0.318   0.377  0.5556  0.9870  0.3924
  281CHL    CL1 1583   2.751   0.397   0.244 -0.3701 -0.1089  0.1141
  281CHL    CL2 1584   3.027   0.321   0.352  0.0190  0.1900 -0.2614
  281CHL      H 1585   2.825   0.212   0.379 -2.8009  1.6967 -1.4059
  282CHL     CL 1586   3.714   0.400   2.003  0.0605 -0.3929  0.2616
  282CHL      C 1587   3.549   0.354   1.959 -0.7202 -0.2190 -0.0428
  282CHL    CL1 1588   3.477   0.463   1.838  0.3081  0.0982  0.1207
  282CHL    CL2 1589   3.548   0.184   1.888  0.0344  0.4447  0.1002
  282CHL      H 1590   3.487   0.341   2.048 -0.2937 -0.2188  0.2627
  283CHL     CL 1591   0.117   4.348   0.206  0.1728  0.0123  0.0835
  283CHL      C 1592   0.066   4.417   0.045  0.1589  0.3925 -0.8934
  283CHL    CL1 1593   0.006   4.587   0.062 -0.0351  0.0629 -0.1893
  283CHL    CL2 1594   0.209   4.424  -0.046 -0.1637 -0.1819 -0.2756
  283CHL      H 1595  -0.015   4.356   0.004  0.5964 -0.0084 -1.1710
  284CHL     CL 1596   3.058   4.069   4.267  0.0543  0.1650 -0.4222
  284CHL      C 1597   3.014   4.152   4.117 -0.0680 -0.2218 -0.1520
  284CHL    CL1 1598   2.839   4.139   4.075 -0.1110  0.2976  0.0813
  284CHL    CL2 1599   3.074   4.324   4.121  0.2210 -0.1969 -0.0215
  284CHL      H 1600   3.061   4.092   4.038 -1.5024 -0.7849 -0.5979
  285CHL     CL 1601   2.592   3.746   1.120  0.0974 -0.2372 -0.0956
  285CHL      C 1602   2.591   3.897   1.015  0.3396  0.2099  0.0952
  285CHL    CL1 1603   2.519   4.040   1.088  0.1328 -0.0015  0.3871
  285CHL    CL2 1604   2.760   3.949   0.967 -0.2972 -0.1553  0.2616
  285CHL      H 1605   2.521   3.878   0.933  0.4125 -1.1796  0.3241
  286CHL     CL 1606   1.854   1.734   3.623 -0.2512  0.0124 -0.1139
  286CHL      C 1607   1.940   1.898   3.625  0.5674  0.4420 -0.2036
  286CHL    CL1 1608   1.954   1.949   3.464 -0.0125  0.0362  0.1952
  286CHL    CL2 1609   1.848   2.014   3.733 -0.1850 -0.0250 -0.2215
  286CHL      H 1610   2.042   1.877   3.660  0.3194 -0.2342  0.1225
  287CHL     CL 1611   0.217   2.183   3.481 -0.2919 -0.3590  0.4687
  287CHL      C 1612   0.117   2.053   3.406  0.3754 -0.1374 -0.3869
  287CHL    CL1 1613   0.220   1.922   3.336  0.0326 -0.0063 -0.3217
  287CHL    CL2 1614   0.022   1.970   3.528  0.4014  0.3412 -0.0881
  287CHL      H 1615   0.049   2.092   3.330  2.0203 -2.6968 -3.4160
  288CHL     CL 1616   2.284   1.124   0.896 -0.0826  0.0848  0.2454
  288CHL      C 1617   2.263   1.035   1.057 -0.0015  0.2810 -0.9886
  288CHL    CL1 1618   2.353   1.119   1.190  0.1996  0.1185  0.5408
  288CHL    CL2 1619   2.092   1.006   1.092 -0.3024 -0.2432  0.0686
  288CHL      H 1620   2.306   0.936   1.043  0.7963  0.3226  0.8299
  289CHL     CL 1621   3.027   1.436   4.214  0.4868 -0.1460  0.2573
  289CHL      C 1622   2.906   1.539   4.315  0.1113  1.1313  0.6010
  289CHL    CL1 1623   2.772   1.434   4.386  0.2182 -0.2529 -0.0653
  289CHL    CL2 1624   3.006   1.620   4.442  0.4613  0.1063  0.7277
  289CHL      H 1625   2.857   1.613   4.251 -0.2714  0.4717  0.1246
  290CHL     CL 1626   2.022   3.826   2.000 -0.5297 -0.4501  0.0877
  290CHL      C 1627   2.112   3.819   1.846  0.2490 -0.1231  0.5865
  290CHL    CL1 1628   2.215   3.968   1.834 -0.1269 -0.2957  0.2981
  290CHL    CL2 1629   2.230   3.687   1.851  0.2682 -0.1556  0.1743
  290CHL      H 1630   2.037   3.814   1.767 -0.8815  2.1733  1.4352
  291CHL     CL 1631   2.774   3.511   1.852 -0.0078  0.0794  0.1716
  291CHL      C 1632   2.670   3.367   1.832  0.8404 -0.0500 -0.0296
  291CHL    CL1 1633   2.702   3.247   1.959 -0.2875 -0.1042  0.4413
  291CHL    CL2 1634   2.496   3.416   1.839  0.1097 -0.1876  0.4355
  291CHL      H 1635   2.696   3.333   1.731 -0.6334  0.3429 -0.5708
  292CHL     CL 1636   2.476   2.076   4.368  0.3338  0.0745  0.3025
  292CHL      C 1637   2.622   2.030   4.452  0.8743  0.4237 -0.9518
  292CHL    CL1 1638   2.732   1.944   4.347  0.2067 -0.0232  0.2309
  292CHL    CL2 1639   2.696   2.171   4.536 -0.3421 -0.4778 -0.2364
  292CHL      H 1640   2.594   1.961   4.533  1.4405  1.2104 -0.0695
  293CHL     CL 1641   2.246   3.461   3.381 -0.3010 -0.1054  0.0537
  293CHL      C 1642   2.339   3.308   3.412  0.8631 -0.2386  0.2168
  293CHL    CL1 1643   2.488   3.337   3.512  0.3106  0.3914 -0.3252
  293CHL    CL2 1644   2.228   3.200   3.501  0.1530  0.1237 -0.4532
  293CHL      H 1645   2.385   3.262   3.324  2.7789 -0.9924  1.5268
  294CHL     CL 1646   4.170   3.384   3.019  0.1365  0.1590 -0.0570
  294CHL      C 1647   4.194   3.386   3.198 -0.1902 -0.2127  0.9839
  294CHL    CL1 1648   4.076   3.270   3.270  0.1756  0.2009 -0.0083
  294CHL    CL2 1649   4.369   3.342   3.247 -0.1149  0.0164 -0.0452
  294CHL      H 1650   4.173   3.487   3.235 -2.4074 -0.5202  0.7042
  295CHL     CL 1651   2.004   0.593   0.837  0.0699 -0.3804  0.0349
  295CHL      C 1652   2.108   0.713   0.927  0.4861  0.2105  0.0358
  295CHL    CL1 1653   2.210   0.615   1.029 -0.1535  0.2953  0.3635
  295CHL    CL2 1654   2.214   0.806   0.821  0.4849  0.7324 -0.4584
  295CHL      H 1655   2.045   0.783   0.985  1.3956  3.3188 -2.4443
  296CHL     CL 1656   1.836   2.695   4.130 -0.1110  0.4131  0.4479
  296CHL      C 1657   1.817   2.520   4.180  0.6677 -0.7349 -0.4359
  296CHL    CL1 1658   1.904   2.488   4.334  0.0190 -0.1503 -0.1152
  296CHL    CL2 1659   1.644   2.480   4.182  0.0565 -0.1381 -0.4650
  296CHL      H 1660   1.882   2.463   4.113  0.3659  0.4092 -1.7435
  297CHL     CL 1661   0.348   0.926   3.265  0.0897  0.5889  0.0514
  297CHL      C 1662   0.323   0.960   3.440  0.3899  0.5745 -0.9406
  297CHL    CL1 1663   0.424   0.842   3.542  0.3060  0.0525  0.1379
  297CHL    CL2 1664   0.372   1.127   3.471  0.2282 -0.1230 -0.2468
  297CHL      H 1665   0.220   0.947   3.475  0.8442  0.2100  0.3216
  298CHL     CL 1666   0.046   3.750   3.852  0.4654 -0.1359  0.2187
  298CHL      C 1667   0.112   3.789   3.678 -0.5019 -0.0435  0.6905
  298CHL    CL1 1668   0.140   3.962   3.676  0.2447  0.1170  0.2283
  298CHL    CL2 1669   0.265   3.694   3.636 -0.5457  0.1290  0.0609
  298CHL      H 1670   0.041   3.771   3.595 -1.0836  2.9327  0.4287
  299CHL     CL 1671   3.429   0.873   0.894 -0.1693 -0.3775 -0.3144
  299CHL      C 1672   3.432   0.717   0.799  0.0407  0.0491 -0.3938
  299CHL    CL1 1673   3.333   0.731   0.650  0.1321  0.2059 -0.2103
  299CHL    CL2 1674   3.595   0.664   0.751  0.0729  0.0199  0.1698
  299CHL      H 1675   3.388   0.638   0.863  0.4292  0.4990  0.4483
  300CHL     CL 1676   4.128   3.395   1.649 -0.0373  0.3050  0.0244
  300CHL      C 1677   4.028   3.308   1.762 -0.3145 -0.9356  0.1484
  300CHL    CL1 1678   4.140   3.184   1.848  0.3034  0.1182 -0.0214
  300CHL    CL2 1679   3.963   3.411   1.879  0.2313 -0.2650  0.1790
  300CHL      H 1680   3.944   3.252   1.720 -0.5040 -1.3075  1.0143
  301CHL     CL 1681   0.383   2.608   1.440 -0.4490  0.1187  0.2727
  301CHL      C 1682   0.243   2.551   1.344 -0.4085 -1.2767  0.2840
  301CHL    CL1 1683   0.289   2.399   1.261 -0.4838  0.0247 -0.0663
  301CHL    CL2 1684   0.112   2.539   1.460  0.1914  0.0659  0.8314
  301CHL      H 1685   0.219   2.629   1.270  1.0144 -0.3422  0.7628
  302CHL     CL 1686   3.126   1.673   3.560  0.0173  0.0383  0.2256
  302CHL      C 1687   3.284   1.651   3.638  0.9350 -0.7300 -0.1950
  302CHL    CL1 1688   3.402   1.784   3.567 -0.0240 -0.2368  0.1639
  302CHL    CL2 1689   3.263   1.657   3.811 -0.1287 -0.3227 -0.0133
  302CHL      H 1690   3.331   1.553   3.622 -0.0955 -1.2134 -0.2950
  303CHL     CL 1691   1.376   0.610   2.297  0.1891 -0.0444  0.3165
  303CHL      C 1692   1.457   0.761   2.222  0.2912  0.6967  0.2258
  303CHL    CL1 1693   1.625   0.709   2.179  0.3413  0.0110 -0.1162
  303CHL    CL2 1694   1.356   0.825   2.083 -0.1456  0.1832  0.2254
  303CHL      H 1695   1.455   0.837   2.301 -0.0340 -1.2979  2.2567
  304CHL     CL 1696   3.811   0.725   1.961 -0.0532  0.1923 -0.2577
  304CHL      C 1697   3.834   0.883   2.050 -0.1628  0.6113  0.7328
  304CHL    CL1 1698   3.951   0.876   2.186  0.3306  0.1858  0.3483
  304CHL    CL2 1699   3.886   1.011   1.934 -0.3464 -0.4290 -0.0058
  304CHL      H 1700   3.733   0.912   2.080 -1.0250 -0.0694 -1.2877
  305CHL     CL 1701   4.209   3.067   1.487  0.0858  0.3734  0.2927
  305CHL      C 1702   4.126   2.906   1.461  0.0293 -0.4966  0.1595
  305CHL    CL1 1703   4.050   2.898   1.300 -0.0674 -0.0083 -0.0493
  305CHL    CL2 1704   4.244   2.774   1.492  0.0326 -0.1295 -0.1660
  305CHL      H 1705   4.053   2.897   1.542 -0.9129 -0.0388 -0.6062
  306CHL     CL 1706   0.734   4.294   0.995 -0.6928  0.2105  0.4480
  306CHL      C 1707   0.874   4.332   1.107  0.3943  0.2882 -0.8978
  306CHL    CL1 1708   0.815   4.320   1.280 -0.2476 -0.2121  0.0214
  306CHL    CL2 1709   1.012   4.220   1.071 -0.3905  0.1818  0.0019
  306CHL      H 1710   0.903   4.435   1.083 -0.8140  1.1150  0.9926
  307CHL     CL 1711   0.354   0.776   0.951  0.1263 -0.3062  0.0577
  307CHL      C 1712   0.244   0.722   1.072 -0.1841  0.6683 -0.2859
  307CHL    CL1 1713   0.283   0.817   1.214 -0.0661  0.1423 -0.0109
  307CHL    CL2 1714   0.076   0.761   1.024  0.1772  0.0594  0.0468
  307CHL      H 1715   0.252   0.614   1.088  2.7024  0.8791  0.1778
  308CHL     CL 1716   3.439   1.704   3.021 -0.1348  0.1264  0.0578
  308CHL      C 1717   3.316   1.712   3.147  0.1186  0.1761 -0.2061
  308CHL    CL1 1718   3.145   1.697   3.087 -0.1277 -0.3741 -0.2909
  308CHL    CL2 1719   3.344   1.593   3.281  0.0733  0.2826 -0.0749
  308CHL      H 1720   3.325   1.809   3.198  3.0994  0.1390 -0.4591
  309CHL     CL 1721   1.648   3.825   3.826 -0.3577 -0.2543  0.5071
  309CHL      C 1722   1.685   3.722   3.677  0.9822 -0.6172 -0.5984
  309CHL    CL1 1723   1.576   3.578   3.671  0.5664 -0.0329 -0.0843
  309CHL    CL2 1724   1.852   3.671   3.674 -0.3734 -0.1500  0.1620
  309CHL      H 1725   1.677   3.787   3.589  0.2930  0.2822  0.1258
  310CHL     CL 1726   0.126   4.019   0.407  0.1028 -0.2461 -0.0956
  310CHL      C 1727   0.164   4.115   0.553 -1.0528  0.5012  0.1073
  310CHL    CL1 1728   0.061   4.051   0.688  0.0367  0.3167  0.3704
  310CHL    CL2 1729   0.337   4.087   0.588  0.0283  0.0081 -0.1140
  310CHL      H 1730   0.136   4.219   0.530  0.7505  0.3502 -3.3224
  311CHL     CL 1731   3.633   2.943   3.643 -0.0944  0.1379 -0.2423
  311CHL      C 1732   3.628   2.769   3.603 -0.2004  0.0260  0.5971
  311CHL    CL1 1733   3.767   2.690   3.685  0.2842 -0.0405  0.3511
  311CHL    CL2 1734   3.469   2.708   3.642 -0.5083  0.1151  0.0883
  311CHL      H 1735   3.645   2.772   3.495  2.9413 -2.5403  0.8736
  312CHL     CL 1736   1.274   3.033   4.282  0.2293  0.3821  0.1974
  312CHL      C 1737   1.338   3.056   4.108 -0.1196  0.6211  0.9718
  312CHL    CL1 1738   1.447   3.201   4.128 -0.0493 -0.0972 -0.1898
  312CHL    CL2 1739   1.437   2.907   4.069 -0.1101 -0.2359  0.2578
  312CHL      H 1740   1.256   3.074   4.038  2.3238  2.0386 -1.7305
  313CHL     CL 1741   1.250   0.911   3.353 -0.0863  0.5166  0.5120
  313CHL      C 1742   1.083   0.946   3.278  0.1910 -0.2486  0.4647
  313CHL    CL1 1743   1.107   1.096   3.188 -0.2947  0.1491  0.0774
  313CHL    CL2 1744   1.031   0.816   3.171 -0.3968  0.1470  0.4773
  313CHL      H 1745   1.010   0.966   3.357  1.8596 -1.0107  2.3035
  314CHL     CL 1746   2.916   0.394   0.905  0.2903  0.0157 -0.0087
  314CHL      C 1747   3.002   0.512   0.804 -0.2863  0.6576 -0.0304
  314CHL    CL1 1748   2.914   0.667   0.825  0.1429  0.1076  0.1045
  314CHL    CL2 1749   3.171   0.518   0.859  0.0030 -0.0409 -0.4117
  314CHL      H 1750   2.993   0.480   0.699 -1.6919  1.6481 -0.2447
  315CHL     CL 1751   1.273   1.055   4.074 -0.1542  0.1370 -0.0603
  315CHL      C 1752   1.260   1.213   4.161  0.2152  0.2017  0.2850
  315CHL    CL1 1753   1.302   1.355   4.044 -0.1607 -0.1801 -0.0664
  315CHL    CL2 1754   1.098   1.229   4.240 -0.1687 -0.1324  0.1456
  315CHL      H 1755   1.338   1.194   4.235  0.6479 -4.0917 -0.9789
  316CHL     CL 1756   2.996   1.017   0.917  0.1540  0.3077  0.4958
  316CHL      C 1757   2.970   1.140   1.046 -0.2201  0.2587 -0.5439
  316CHL    CL1 1758   3.090   1.115   1.171  0.0494  0.2412 -0.2157
  316CHL    CL2 1759   2.978   1.301   0.967 -0.2277  0.3867  0.2514
  316CHL      H 1760   2.872   1.118   1.090  1.2065 -2.9142  1.3332
  317CHL     CL 1761   2.338   4.264   1.325 -0.1129 -0.1698  0.1943
  317CHL      C 1762   2.426   4.186   1.469 -0.0604 -0.4414  0.0551
  317CHL    CL1 1763   2.595   4.139   1.412  0.4145  0.1841 -0.3940
  317CHL    CL2 1764   2.429   4.311   1.589  0.1020 -0.3302  0.2361
  317CHL      H 1765   2.371   4.098   1.504  0.1872 -2.2963 -3.7079
  318CHL     CL 1766   0.338   0.347   4.191 -0.0436 -0.2304  0.2175
  318CHL      C 1767   0.369   0.366   4.016 -0.3180  0.1390  0.4043
  318CHL    CL1 1768   0.543   0.332   3.975  0.2996 -0.0902  0.0938
  318CHL    CL2 1769   0.273   0.247   3.941 -0.2273 -0.4317 -0.0585
  318CHL      H 1770   0.342   0.467   3.983 -2.4152 -0.3004  0.6052
  319CHL     CL 1771   3.996   2.247   0.821  0.1904  0.1008 -0.0066
  319CHL      C 1772   3.986   2.087   0.903  0.6125  0.1554 -0.1381
  319CHL    CL1 1773   4.138   2.055   0.990  0.1116 -0.0153  0.0558
  319CHL    CL2 1774   3.842   2.086   1.011  0.0816 -0.1706  0.2764
  319CHL      H 1775   3.978   2.015   0.820  0.8040  0.2349 -0.2241
  320CHL     CL 1776   3.186   3.699   0.413  0.1995 -0.0280  0.3069
  320CHL      C 1777   3.031   3.630   0.458  0.2429  0.4284  0.9843
  320CHL    CL1 1778   2.908   3.712   0.360 -0.1319  0.0376  0.3905
  320CHL    CL2 1779   3.023   3.463   0.397 -0.4279  0.1446  0.6600
  320CHL      H 1780   3.006   3.644   0.564 -0.0673 -0.3754  1.0197
  321CHL     CL 1781   1.828   2.831   2.939  0.3740 -0.0035 -0.0675
  321CHL      C 1782   1.645   2.875   2.936 -0.1615  0.7952  0.4277
  321CHL    CL1 1783   1.563   2.768   2.801  0.0892  0.0575 -0.4025
  321CHL    CL2 1784   1.587   2.846   3.102 -0.3707  0.4428 -0.0089
  321CHL      H 1785   1.631   2.981   2.917 -0.5317  0.5130 -0.9385
  322CHL     CL 1786   3.167   3.562   0.779  0.2352  0.0037 -0.4327
  322CHL      C 1787   3.075   3.669   0.893 -0.2348  0.9469 -0.2857
  322CHL    CL1 1788   2.917   3.695   0.805  0.2076 -0.0160 -0.0770
  322CHL    CL2 1789   3.039   3.584   1.053  0.0288 -0.0942  0.1137
  322CHL      H 1790   3.128   3.764   0.904 -2.0128  1.8102  1.4273
  323CHL     CL 1791   3.498   2.426   1.418 -0.2043 -0.0819 -0.4883
  323CHL      C 1792   3.345   2.407   1.326 -0.1167  0.2730  0.9568
  323CHL    CL1 1793   3.201   2.451   1.424 -0.2646  0.1057 -0.2374
  323CHL    CL2 1794   3.341   2.500   1.176 -0.0156  0.1506 -0.0484
  323CHL      H 1795   3.333   2.304   1.290 -2.4318  0.8085  0.0650
  324CHL     CL 1796   2.487   1.739   3.533 -0.0364  0.0669 -0.2066
  324CHL      C 1797   2.504   1.784   3.700 -0.0125 -0.0882 -0.1856
  324CHL    CL1 1798   2.352   1.809   3.790  0.4712  0.6102 -0.1188
  324CHL    CL2 1799   2.609   1.681   3.775  0.1538  0.7243  0.2257
  324CHL      H 1800   2.547   1.884   3.686  1.0889 -0.8480 -2.6564
  325CHL     CL 1801   3.879   4.212   2.329 -0.3597  0.1928 -0.0273
  325CHL      C 1802   3.977   4.113   2.219  0.6456  0.5385  0.1427
  325CHL    CL1 1803   4.133   4.191   2.188 -0.1407  0.0453  0.4459
  325CHL    CL2 1804   3.999   3.943   2.277 -0.4024 -0.4916  0.0900
  325CHL      H 1805   3.924   4.110   2.123 -0.2647  3.1627  0.4711
  326CHL     CL 1806   3.865   1.934   0.031  0.1869  0.0836 -0.0704
  326CHL      C 1807   3.882   2.075   0.143 -0.1758 -0.2190  0.0089
  326CHL    CL1 1808   4.030   2.067   0.253  0.2619 -0.4304  0.0292
  326CHL    CL2 1809   3.864   2.217   0.046 -0.1008 -0.3333  0.1851
  326CHL      H 1810   3.799   2.081   0.214 -0.6342 -0.5793 -0.4871
  327CHL     CL 1811   4.344   0.957   0.307 -0.0712  0.1497 -0.0355
  327CHL      C 1812   4.370   0.869   0.463 -0.0171  0.1961 -0.1338
  327CHL    CL1 1813   4.534   0.789   0.486 -0.0504  0.5007 -0.1757
  327CHL    CL2 1814   4.340   0.989   0.598  0.2388 -0.0140  0.0476
  327CHL      H 1815   4.290   0.794   0.458 -0.3613  0.6028 -0.9704
  328CHL     CL 1816   3.695   1.465   0.615  0.0368  0.3160  0.3635
  328CHL      C 1817   3.651   1.628   0.665  0.9982  0.2259 -0.0408
  328CHL    CL1 1818   3.684   1.744   0.530  0.0306 -0.2608  0.3881
  328CHL    CL2 1819   3.478   1.637   0.676 -0.5744  0.0790  0.0154
  328CHL      H 1820   3.704   1.663   0.754  1.3531 -0.6068  0.0874
  329CHL     CL 1821   0.128   2.215   2.832  0.0271  0.1131 -0.0451
  329CHL      C 1822   0.217   2.170   2.687  0.0391 -0.2769 -0.0243
  329CHL    CL1 1823   0.108   2.081   2.572 -0.0893  0.0380 -0.4477
  329CHL    CL2 1824   0.272   2.325   2.595 -0.4330 -0.5316 -0.2038
  329CHL      H 1825   0.308   2.114   2.710  0.2359 -0.2432 -0.6880
  330CHL     CL 1826   2.431   1.375   0.183 -0.1094 -0.1017 -0.4950
  330CHL      C 1827   2.435   1.224   0.272  0.1849 -0.0012  0.2746
  330CHL    CL1 1828   2.502   1.096   0.167 -0.2557 -0.5908  0.3558
  330CHL    CL2 1829   2.528   1.248   0.424 -0.0517 -0.2873  0.1051
  330CHL      H 1830   2.332   1.192   0.292 -0.0775 -0.0442 -1.0759
  331CHL     CL 1831   2.468   1.774   1.593 -0.2210 -0.5299 -0.2178
  331CHL      C 1832   2.416   1.950   1.561 -0.3761 -0.1753 -0.3893
  331CHL    CL1 1833   2.484   2.043   1.691 -0.2805 -0.3782 -0.3928
  331CHL    CL2 1834   2.498   1.998   1.403 -0.1337  0.0071 -0.0911
  331CHL      H 1835   2.308   1.967   1.547 -0.4411  1.2560  1.4272
  332CHL     CL 1836   2.184   0.602   2.363  0.6777  0.1287 -0.1070
  332CHL      C 1837   2.360   0.630   2.357 -0.8732  0.2526 -0.0493
  332CHL    CL1 1838   2.450   0.492   2.417  0.0888  0.0768 -0.1903
  332CHL    CL2 1839   2.418   0.672   2.192  0.2894 -0.0773 -0.0163
  332CHL      H 1840   2.378   0.714   2.425 -2.7368 -0.0505  0.8974
  333CHL     CL 1841   2.432   2.362   1.821  0.0073 -0.3631  0.1297
  333CHL      C 1842   2.281   2.341   1.909  0.1225 -1.0280 -0.3773
  333CHL    CL1 1843   2.311   2.293   2.072  0.5262  0.1928  0.0315
  333CHL    CL2 1844   2.203   2.496   1.912 -0.2552  0.2284  0.0929
  333CHL      H 1845   2.215   2.272   1.856  0.7902 -2.8977  1.1023
  334CHL     CL 1846   2.370   3.334   1.315  0.0925  0.0758  0.0748
  334CHL      C 1847   2.330   3.388   1.151  0.4964  0.6211 -1.4789
  334CHL    CL1 1848   2.227   3.534   1.166  0.0941 -0.3631 -0.4961
  334CHL    CL2 1849   2.475   3.404   1.057  0.0944 -0.4043  0.3734
  334CHL      H 1850   2.263   3.316   1.102  0.2215 -1.3398  1.5013
  335CHL     CL 1851   3.324   0.251   3.903 -0.4034  0.2215  0.0552
  335CHL      C 1852   3.260   0.178   3.745  0.6311  0.4913  0.0199
  335CHL    CL1 1853   3.308   0.272   3.601 -0.0482  0.0276  0.0132
  335CHL    CL2 1854   3.308   0.008   3.736  0.2092 -0.2650  0.0075
  335CHL      H 1855   3.150   0.177   3.744  0.5812  2.0670  1.2166
  336CHL     CL 1856   3.288   3.650   1.902  0.0499 -0.5179 -0.2295
  336CHL      C 1857   3.258   3.472   1.884 -0.5164 -0.6319 -0.4792
  336CHL    CL1 1858   3.208   3.452   1.718 -0.0993  0.1598 -0.0504
  336CHL    CL2 1859   3.396   3.366   1.893 -0.1747  0.2000  0.2711
  336CHL      H 1860   3.177   3.444   1.953 -0.6659  0.5374 -0.1636
  337CHL     CL 1861   1.044   4.192   2.048  0.1554 -0.0263 -0.0215
  337CHL      C 1862   1.022   4.332   2.159 -0.3030 -0.0944  0.7006
  337CHL    CL1 1863   1.172   4.432   2.175 -0.0047  0.5950 -0.3639
  337CHL    CL2 1864   0.901   4.437   2.077  0.2411 -0.2652  0.0453
  337CHL      H 1865   0.982   4.297   2.255 -3.3051 -0.3665 -0.5532
  338CHL     CL 1866   3.833   3.898   1.237  0.0899 -0.1652  0.4395
  338CHL      C 1867   3.973   3.807   1.198 -0.0260 -0.9343  0.3005
  338CHL    CL1 1868   4.115   3.917   1.169  0.0979  0.1219  0.1180
  338CHL    CL2 1869   4.016   3.709   1.337 -0.0468  0.1833 -0.1785
  338CHL      H 1870   3.969   3.747   1.106  2.4677 -1.1106  0.2273
  339CHL     CL 1871   0.599   1.789   1.863 -0.6695  0.1409  0.3598
  339CHL      C 1872   0.421   1.825   1.916 -0.4309 -0.2323 -1.0960
  339CHL    CL1 1873   0.400   1.755   2.083  0.2699 -0.5639  0.3784
  339CHL    CL2 1874   0.389   2.000   1.914  0.4063  0.5287  0.1890
  339CHL      H 1875   0.348   1.780   1.848 -0.8220  1.7917 -2.1085
  340CHL     CL 1876   2.658   3.453   3.066  0.1601  0.4861 -0.1159
  340CHL      C 1877   2.669   3.273   3.109 -0.5683 -0.0599 -0.2294
  340CHL    CL1 1878   2.533   3.178   3.035 -0.3103  0.2270 -0.4876
  340CHL    CL2 1879   2.840   3.220   3.045  0.1125  0.1111 -0.2145
  340CHL      H 1880   2.674   3.263   3.218 -0.6835  1.4977 -0.0587
  341CHL     CL 1881   0.517   1.394   2.065 -0.0704 -0.1628  0.0985
  341CHL      C 1882   0.438   1.439   1.914  0.5746 -0.3297 -0.4468
  341CHL    CL1 1883   0.463   1.301   1.796 -0.4063 -0.1072 -0.0063
  341CHL    CL2 1884   0.261   1.483   1.946  0.3951  0.1308  0.0461
  341CHL      H 1885   0.480   1.524   1.860 -0.6013  0.9004  0.4866
  342CHL     CL 1886   1.253   2.894   3.728  0.2617 -0.3239 -0.1202
  342CHL      C 1887   1.384   2.861   3.604  0.3665  0.2292  0.0798
  342CHL    CL1 1888   1.296   2.787   3.462 -0.1309  0.3337 -0.1447
  342CHL    CL2 1889   1.464   3.017   3.557 -0.1020  0.1316 -0.1896
  342CHL      H 1890   1.457   2.793   3.649  0.9832  1.8988  1.7163
  343CHL     CL 1891   2.639   2.030   2.070  0.1948 -0.1810  0.1957
  343CHL      C 1892   2.713   2.173   1.988 -0.2478  0.6302  0.6057
  343CHL    CL1 1893   2.776   2.292   2.109 -0.1216 -0.4565  0.0132
  343CHL    CL2 1894   2.851   2.112   1.887  0.2376  0.1166  0.0085
  343CHL      H 1895   2.639   2.227   1.927 -1.4876  0.0690  1.5801
  344CHL     CL 1896   3.025   0.971   4.148 -0.0063  0.0807 -0.2673
  344CHL      C 1897   2.892   0.862   4.195  0.3116  0.2209 -0.0334
  344CHL    CL1 1898   2.736   0.954   4.183  0.0064 -0.3660 -0.2501
  344CHL    CL2 1899   2.908   0.722   4.087  0.1790  0.0686 -0.2881
  344CHL      H 1900   2.901   0.824   4.297 -0.4634  0.7090  0.2218
  345CHL     CL 1901   0.718   0.602   3.365 -0.3700  0.4261 -0.3361
  345CHL      C 1902   0.867   0.528   3.428  0.2050 -0.6613  0.7088
  345CHL    CL1 1903   0.834   0.467   3.602  0.0968  0.0803  0.5222
  345CHL    CL2 1904   0.915   0.388   3.326  0.1932 -0.2026 -0.0708
  345CHL      H 1905   0.947   0.603   3.422 -1.7760  1.6116  0.8722
  346CHL     CL 1906   2.350   4.322   4.025  0.5031  0.0489  0.1299
  346CHL      C 1907   2.456   4.352   3.883  0.0916  0.1746 -0.0191
  346CHL    CL1 1908   2.348   4.393   3.732 -0.1101 -0.1135 -0.0285
  346CHL    CL2 1909   2.584   4.473   3.907 -0.1034  0.3127 -0.4523
  346CHL      H 1910   2.509   4.259   3.857  0.1617 -0.5545  2.5223
  347CHL     CL 1911   3.617   0.003   3.897  0.2443  0.0233  0.0284
  347CHL      C 1912   3.704   0.012   4.057  0.2990 -0.0584  0.3070
  347CHL    CL1 1913   3.767  -0.154   4.093  0.0840 -0.1905 -0.2972
  347CHL    CL2 1914   3.845   0.122   4.024  0.1608  0.0279  0.6919
  347CHL      H 1915   3.628   0.048   4.127 -0.1875  1.1971 -0.8134
  348CHL     CL 1916   2.327   3.326   4.043  0.0278 -0.1171 -0.5116
  348CHL      C 1917   2.375   3.152   4.019 -0.7095 -0.2037  0.0772
  348CHL    CL1 1918   2.253   3.045   4.085  0.1964  0.1907  0.0595
  348CHL    CL2 1919   2.385   3.124   3.843 -0.4981 -0.4055  0.1104
  348CHL      H 1920   2.474   3.137   4.063 -1.0704 -1.6569  0.4460
  349CHL     CL 1921   0.329   0.503   1.450  0.0597 -0.1233 -0.0214
  349CHL      C 1922   0.395   0.355   1.379 -0.2216  0.4214  0.4146
  349CHL    CL1 1923   0.428   0.373   1.204 -0.1939 -0.0348 -0.2891
  349CHL    CL2 1924   0.556   0.322   1.462 -0.2342  0.0526 -0.8109
  349CHL      H 1925   0.325   0.271   1.390  1.5170 -1.3371 -1.1858
  350CHL     CL 1926   2.283   1.040   3.746 -0.1745  0.0019 -0.0446
  350CHL      C 1927   2.444   0.983   3.727  0.1596  0.2206 -0.5146
  350CHL    CL1 1928   2.533   1.119   3.682  0.0306 -0.2694  0.3191
  350CHL    CL2 1929   2.514   0.916   3.883  0.1790  0.1480  0.4958
  350CHL      H 1930   2.442   0.916   3.640  1.0768  0.2243 -0.5540
  351CHL     CL 1931   3.905   1.714   2.823  0.1560  0.3835 -0.4236
  351CHL      C 1932   3.737   1.656   2.821  1.0046  1.0773  0.2621
  351CHL    CL1 1933   3.657   1.731   2.678 -0.0498 -0.0101  0.3379
  351CHL    CL2 1934   3.729   1.482   2.801  0.0494 -0.4337 -0.5214
  351CHL      H 1935   3.677   1.682   2.909 -0.8129 -0.3365 -0.4920
  352CHL     CL 1936   0.330   2.493   1.928 -0.1475 -0.1002 -0.1944
  352CHL      C 1937   0.313   2.404   1.772  0.0955  1.1066 -0.1773
  352CHL    CL1 1938   0.444   2.277   1.751 -0.2317  0.1640  0.6733
  352CHL    CL2 1939   0.152   2.328   1.768 -0.2355 -0.1930 -0.4013
  352CHL      H 1940   0.313   2.465   1.681  0.4670  0.5206 -0.5762
  353CHL     CL 1941   1.093   2.782   4.175  0.3631 -0.0110  0.0711
  353CHL      C 1942   0.942   2.867   4.195  0.5915  0.7152 -0.5155
  353CHL    CL1 1943   0.884   2.847   4.368 -0.2937 -0.2145 -0.0303
  353CHL    CL2 1944   0.966   3.045   4.161 -0.2259  0.6273 -0.0140
  353CHL      H 1945   0.868   2.812   4.134  1.0976 -0.4809 -0.0815
  354CHL     CL 1946   3.612   3.727   1.503  0.2708  0.4934 -0.1943
  354CHL      C 1947   3.723   3.747   1.631 -0.0911 -0.0563 -0.9396
  354CHL    CL1 1948   3.844   3.875   1.581 -0.1179  0.3381 -0.1627
  354CHL    CL2 1949   3.636   3.803   1.773  0.1466  0.1170  0.1660
  354CHL      H 1950   3.776   3.652   1.649  0.6370  0.5276  0.1368
  355CHL     CL 1951   2.674   1.652   0.818 -0.1308 -0.0134 -0.0571
  355CHL      C 1952   2.533   1.561   0.872 -0.1742 -0.0025 -0.2669
  355CHL    CL1 1953   2.571   1.391   0.933 -0.0906 -0.1095  0.1793
  355CHL    CL2 1954   2.448   1.660   1.004 -0.3684 -0.3888  0.0088
  355CHL      H 1955   2.454   1.545   0.798  0.9950 -0.4493 -1.4567
  356CHL     CL 1956   3.826   1.735   1.077 -0.1747  0.3779  0.2266
  356CHL      C 1957   3.821   1.718   1.249 -0.0788  0.2861 -0.0314
  356CHL    CL1 1958   3.791   1.867   1.332  0.1006 -0.2514  0.4723
  356CHL    CL2 1959   3.715   1.582   1.304 -0.2375 -0.5759  0.3482
  356CHL      H 1960   3.921   1.677   1.271 -0.5574 -1.7002 -1.2348
  357CHL     CL 1961   3.803   3.685   3.157 -0.4930 -0.1708  0.1081
  357CHL      C 1962   3.694   3.804   3.081  0.4424 -0.3511 -0.4589
  357CHL    CL1 1963   3.661   3.938   3.193  0.1943 -0.3732  0.0913
  357CHL    CL2 1964   3.760   3.870   2.933  0.2525 -0.4816  0.0793
  357CHL      H 1965   3.606   3.743   3.057  1.3367 -1.8256 -0.0758
  358CHL     CL 1966   4.044   3.840   0.571 -0.1827 -0.0263 -0.1410
  358CHL      C 1967   4.085   3.807   0.746 -0.0682 -0.5173  0.0224
  358CHL    CL1 1968   4.081   3.955   0.840 -0.0556  0.0071  0.0460
  358CHL    CL2 1969   3.965   3.690   0.805 -0.4397  0.5182  0.5458
  358CHL      H 1970   4.186   3.765   0.742 -1.1669 -3.2722 -1.5070
  359CHL     CL 1971   4.170   0.244   2.267  0.0508 -0.0982 -0.1885
  359CHL      C 1972   4.040   0.328   2.184  0.6064  0.0595  0.0731
  359CHL    CL1 1973   3.882   0.281   2.269 -0.4017  0.4376  0.5021
  359CHL    CL2 1974   4.041   0.505   2.186 -0.0433  0.1960  0.1169
  359CHL      H 1975   4.036   0.294   2.080  3.5543 -2.4336  0.6437
  360CHL     CL 1976   3.282   1.964   0.045  0.3311  0.4347  0.3760
  360CHL      C 1977   3.186   1.920   0.195  0.3842  0.2812  0.3437
  360CHL    CL1 1978   3.296   1.917   0.341 -0.0867 -0.0509  0.3309
  360CHL    CL2 1979   3.065   2.050   0.221 -0.1769  0.1114 -0.2110
  360CHL      H 1980   3.136   1.824   0.177  0.6355  0.1274  0.4586
  361CHL     CL 1981   2.160   0.928   3.168 -0.0881  0.0551 -0.3593
  361CHL      C 1982   2.228   1.044   3.286  0.6000 -0.3446  0.2795
  361CHL    CL1 1983   2.383   0.976   3.344  0.3159  0.2477  0.0338
  361CHL    CL2 1984   2.272   1.207   3.207  0.0935 -0.2038 -0.2186
  361CHL      H 1985   2.159   1.066   3.368  1.1011 -0.9539  0.8743
  362CHL     CL 1986   1.065   2.263   2.223 -0.0959 -0.4991 -0.3858
  362CHL      C 1987   1.127   2.411   2.131  0.6021 -0.1176  0.1071
  362CHL    CL1 1988   1.093   2.396   1.950  0.1665  0.4573 -0.1986
  362CHL    CL2 1989   1.050   2.557   2.207  0.0218 -0.4307  0.1510
  362CHL      H 1990   1.235   2.416   2.147  0.5484 -0.2714  0.5444
  363CHL     CL 1991   2.244   2.851   0.325 -0.1909  0.0579  0.7676
  363CHL      C 1992   2.138   2.805   0.197 -0.1807  0.1064  0.0248
  363CHL    CL1 1993   2.051   2.655   0.252 -0.0133  0.2571 -0.1516
  363CHL    CL2 1994   2.021   2.927   0.143 -0.3830 -0.0199 -0.0928
  363CHL      H 1995   2.196   2.766   0.113  0.4552  0.0765  0.4735
  364CHL     CL 1996   3.375   1.685   4.194  0.2730  0.4364  0.1247
  364CHL      C 1997   3.509   1.797   4.180 -0.1680  0.3423  0.7931
  364CHL    CL1 1998   3.675   1.721   4.182  0.1272  0.2155  0.2616
  364CHL    CL2 1999   3.492   1.897   4.034  0.4419 -0.4802  0.2204
  364CHL      H 2000   3.497   1.860   4.269  1.1037  2.0210 -0.1754
  365CHL     CL 2001   0.721   0.530   2.118 -0.1896 -0.2132  0.0920
  365CHL      C 2002   0.648   0.373   2.141 -0.0483  0.2744 -0.4571
  365CHL    CL1 2003   0.579   0.364   2.311 -0.2749  0.0826  0.3141
  365CHL    CL2 2004   0.519   0.356   2.018 -0.0702 -0.4280  0.2259
  365CHL      H 2005   0.719   0.291   2.126 -1.5902 -1.1690 -0.1215
  366CHL     CL 2006   0.225   0.581   3.328  0.0699 -0.5605  0.1831
  366CHL      C 2007   0.168   0.434   3.234 -0.3345 -0.2573 -0.1432
  366CHL    CL1 2008   0.096   0.321   3.347 -0.0497 -0.1873  0.2926
  366CHL    CL2 2009   0.046   0.487   3.115 -0.0719 -0.1487  0.1665
  366CHL      H 2010   0.251   0.378   3.191  2.0144  1.0868  2.3218
  367CHL     CL 2011   0.878   0.987   3.845  0.3787 -0.0649 -0.2167
  367CHL      C 2012   0.971   0.932   3.701 -0.7206  0.2674  0.0154
  367CHL    CL1 2013   0.868   0.838   3.587 -0.3134 -0.0910 -0.2012
  367CHL    CL2 2014   1.045   1.076   3.616  0.0786 -0.0252 -0.0749
  367CHL      H 2015   1.056   0.865   3.717 -0.9104  0.4780  2.2812
  368CHL     CL 2016   3.780   2.299   3.859 -0.0948  0.4911 -0.1076
  368CHL      C 2017   3.776   2.301   4.042  0.2464 -0.2875  0.1759
  368CHL    CL1 2018   3.787   2.460   4.124 -0.0147  0.1529 -0.0185
  368CHL    CL2 2019   3.638   2.210   4.100  0.4848 -0.1507  0.2874
  368CHL      H 2020   3.865   2.254   4.085 -1.9038 -2.6992  2.3432
  369CHL     CL 2021   4.124   3.039   3.040  0.5095  0.1988 -0.4131
  369CHL      C 2022   4.286   3.003   2.961  0.1109 -0.1619 -0.4181
  369CHL    CL1 2023   4.314   2.828   2.938 -0.2922  0.0464 -0.4145
  369CHL    CL2 2024   4.299   3.095   2.805 -0.5910 -0.1475  0.5803
  369CHL      H 2025   4.353   3.052   3.032  1.5071 -1.0271 -1.1002
  370CHL     CL 2026   1.987   2.677   0.624 -0.4491  0.0791  0.1172
  370CHL      C 2027   1.816   2.660   0.561 -0.3518  0.2001  0.3953
  370CHL    CL1 2028   1.762   2.801   0.459  0.0913 -0.2083 -0.2097
  370CHL    CL2 2029   1.812   2.512   0.456 -0.1103  0.4212  0.1994
  370CHL      H 2030   1.742   2.634   0.638 -2.3744  2.5707 -0.5950
  371CHL     CL 2031   2.361   4.024   0.338  0.2812  0.0127 -0.3779
  371CHL      C 2032   2.356   3.901   0.469  0.1513  0.4061 -0.2324
  371CHL    CL1 2033   2.509   3.808   0.478 -0.0960  0.2889  0.1485
  371CHL    CL2 2034   2.343   3.979   0.624  0.1687 -0.3478  0.1422
  371CHL      H 2035   2.273   3.831   0.455  1.0106 -0.9809  1.2371
  372CHL     CL 2036   0.324   0.431   0.225  0.2308 -0.1410  0.1024
  372CHL      C 2037   0.370   0.257   0.266 -0.0512  0.2796  0.7267
  372CHL    CL1 2038   0.539   0.228   0.260  0.0868 -0.3676  0.2408
  372CHL    CL2 2039   0.296   0.225   0.431  0.0453 -0.0563  0.0521
  372CHL      H 2040   0.313   0.195   0.195  1.4421 -0.0630 -0.2101
  373CHL     CL 2041   4.280   2.500   2.001  0.3070  0.1374  0.0161
  373CHL      C 2042   4.180   2.416   1.878  0.2793  0.0910 -0.5891
  373CHL    CL1 2043   4.065   2.300   1.951  0.0759  0.1111 -0.1248
  373CHL    CL2 2044   4.108   2.517   1.763  0.0861 -0.1731  0.0829
  373CHL      H 2045   4.247   2.356   1.815  0.5647  0.1849 -0.3787
  374CHL     CL 2046   2.202   3.031   3.121  0.4051  0.0080 -0.2433
  374CHL      C 2047   2.219   3.001   2.947  0.1231  0.4910  0.0548
  374CHL    CL1 2048   2.207   2.817   2.910  0.0141  0.5663  0.3197
  374CHL    CL2 2049   2.097   3.086   2.863 -0.0617 -0.0064  0.1041
  374CHL      H 2050   2.314   3.047   2.917 -0.0383  1.7368  1.4047
  375CHL     CL 2051   3.782   1.583   3.603 -0.1574  0.0918  0.3014
  375CHL      C 2052   3.700   1.508   3.739  0.3565  0.7258  0.4723
  375CHL    CL1 2053   3.653   1.646   3.842  0.1132 -0.3251  0.3221
  375CHL    CL2 2054   3.562   1.406   3.683  0.0380  0.1490 -0.2472
  375CHL      H 2055   3.779   1.444   3.777  1.0122 -0.4138 -2.5777
  376CHL     CL 2056   2.560   3.438   2.330  0.0120  0.1236  0.1771
  376CHL      C 2057   2.596   3.618   2.328  0.0801  0.5737 -0.0429
  376CHL    CL1 2058   2.563   3.686   2.170  0.3811  0.0683  0.3626
  376CHL    CL2 2059   2.480   3.694   2.446  0.2113  0.0620  0.1484
  376CHL      H 2060   2.697   3.642   2.362 -0.5416  0.9495  1.6500
  377CHL     CL 2061   0.914   2.845   3.076 -0.1380 -0.4181 -0.1171
  377CHL      C 2062   0.901   2.804   2.914  0.3873  0.4948  0.9565
  377CHL    CL1 2063   0.733   2.796   2.843 -0.4896  0.5592  0.4988
  377CHL    CL2 2064   1.009   2.916   2.815  0.0768 -0.1765 -0.0163
  377CHL      H 2065   0.940   2.703   2.892 -1.3613  0.1728 -0.9731
  378CHL     CL 2066   1.555   1.390   3.681  0.1651 -0.3457  0.0098
  378CHL      C 2067   1.643   1.241   3.677 -0.5213  0.1891 -0.7266
  378CHL    CL1 2068   1.582   1.121   3.553 -0.1077 -0.2744  0.3786
  378CHL    CL2 2069   1.820   1.280   3.656  0.4734  0.1194 -0.3873
  378CHL      H 2070   1.621   1.201   3.776  1.0131  0.1797 -0.3588
  379CHL     CL 2071   1.524   1.212   2.022 -0.1099 -0.3460 -0.4983
  379CHL      C 2072   1.664   1.107   2.042  0.8586 -0.1887 -0.9574
  379CHL    CL1 2073   1.756   1.104   1.889  0.1868  0.0543 -0.1780
  379CHL    CL2 2074   1.769   1.173   2.174  0.3715 -0.2326 -0.0282
  379CHL      H 2075   1.625   1.009   2.071 -2.5037  1.4727  0.7381
  380CHL     CL 2076   0.991   2.390   1.529  0.3218 -0.0870  0.2156
  380CHL      C 2077   0.932   2.523   1.443 -0.0088 -0.1412  0.4475
  380CHL    CL1 2078   0.879   2.464   1.283  0.0423 -0.0079 -0.1541
  380CHL    CL2 2079   0.802   2.612   1.537  0.2256  0.2180  0.0677
  380CHL      H 2080   1.008   2.598   1.417 -0.8246  0.0880 -1.4610
  381CHL     CL 2081   4.328   1.709   2.327 -0.2019 -0.0702  0.0032
  381CHL      C 2082   4.256   1.683   2.162 -0.1167 -0.4006 -0.3964
  381CHL    CL1 2083   4.113   1.786   2.155 -0.2020 -0.1506  0.0041
  381CHL    CL2 2084   4.374   1.737   2.039  0.1069 -0.2067  0.4311
  381CHL      H 2085   4.225   1.578   2.157 -2.0546  0.1150 -0.1990
  382CHL     CL 2086   0.662   4.100   3.922  0.0646 -0.0106  0.5572
  382CHL      C 2087   0.524   4.210   3.974  0.0488  0.2525  0.1164
  382CHL    CL1 2088   0.573   4.290   4.125  0.0428  0.2407 -0.0395
  382CHL    CL2 2089   0.483   4.330   3.847 -0.5018 -0.3686 -0.3162
  382CHL      H 2090   0.440   4.146   4.003 -0.6674  1.3512  0.5204
  383CHL     CL 2091   0.127   1.107   4.275  0.0147 -0.2913 -0.0378
  383CHL      C 2092  -0.038   1.168   4.340  0.0890  0.3120  0.7172
  383CHL    CL1 2093  -0.018   1.320   4.423 -0.0278  0.2728  0.0358
  383CHL    CL2 2094  -0.157   1.203   4.214  0.1056  0.1198  0.1082
  383CHL      H 2095  -0.068   1.087   4.408  0.0701 -0.8791 -0.6721
  384CHL     CL 2096   2.737   0.903   1.967 -0.0557 -0.2314  0.2330
  384CHL      C 2097   2.594   0.977   2.042  0.0391 -0.3365  0.0928
  384CHL    CL1 2098   2.631   1.053   2.212  0.1402 -0.2922 -0.0227
  384CHL    CL2 2099   2.534   1.104   1.924  0.2763  0.0354 -0.3417
  384CHL      H 2100   2.512   0.905   2.043  0.6309 -1.0398 -0.3966
  385CHL     CL 2101   3.087   2.939   2.648 -0.0391  0.0036  0.3318
  385CHL      C 2102   3.246   2.993   2.724 -0.4604 -0.3660  0.2660
  385CHL    CL1 2103   3.234   3.164   2.758 -0.1748 -0.0962 -0.0572
  385CHL    CL2 2104   3.275   2.905   2.890  0.0278 -0.0389 -0.5186
  385CHL      H 2105   3.331   2.972   2.658 -1.2087  0.0770 -0.8798
  386CHL     CL 2106   1.588   0.673   3.161  0.1094 -0.5824  0.3841
  386CHL      C 2107   1.660   0.812   3.255 -0.1605  0.0192  0.5402
  386CHL    CL1 2108   1.665   0.776   3.431 -0.1202  0.1196 -0.1023
  386CHL    CL2 2109   1.827   0.829   3.189  0.1755  0.3169 -0.1842
  386CHL      H 2110   1.596   0.899   3.233  0.4864  0.3863  0.0839
  387CHL     CL 2111   0.274   3.228   3.722  0.3103  0.3802  0.1214
  387CHL      C 2112   0.094   3.244   3.684  0.1192 -0.0397 -0.5947
  387CHL    CL1 2113   0.049   3.414   3.660 -0.0424  0.1152 -0.1041
  387CHL    CL2 2114   0.060   3.143   3.533 -0.0277 -0.2834  0.1036
  387CHL      H 2115   0.031   3.204   3.765  0.5121 -0.3209 -0.4255
  388CHL     CL 2116   2.959   0.242   4.185 -0.0988  0.1149  0.0810
  388CHL      C 2117   3.024   0.384   4.279  0.4723  0.2162 -0.1700
  388CHL    CL1 2118   3.134   0.478   4.182 -0.0916 -0.2557 -0.1920
  388CHL    CL2 2119   2.889   0.498   4.324  0.3855  0.4828  0.0505
  388CHL      H 2120   3.072   0.341   4.368 -1.9962 -3.1100 -0.2491
  389CHL     CL 2121   3.870   0.742   3.109 -0.0704 -0.0850  0.2065
  389CHL      C 2122   3.727   0.738   3.226  0.3785 -0.3489 -0.1559
  389CHL    CL1 2123   3.616   0.878   3.207  0.3958  0.0484  0.1528
  389CHL    CL2 2124   3.655   0.576   3.218 -0.1322 -0.0159 -0.0864
  389CHL      H 2125   3.773   0.745   3.325 -0.1912 -1.1134  0.1718
  390CHL     CL 2126   1.078   3.360   3.444  0.0144  0.0923 -0.6143
  390CHL      C 2127   1.212   3.258   3.488 -0.2326 -0.8332 -0.9240
  390CHL    CL1 2128   1.284   3.185   3.341  0.3605  0.3555  0.1730
  390CHL    CL2 2129   1.341   3.362   3.569 -0.2111  0.0071  0.3203
  390CHL      H 2130   1.191   3.177   3.559  2.1099 -1.2368 -0.5890
  391CHL     CL 2131   4.077   3.865   3.980 -0.4285 -0.2144  0.0482
  391CHL      C 2132   3.924   3.843   4.064 -0.3742 -0.4077  0.4865
  391CHL    CL1 2133   3.912   3.662   4.076 -0.1436 -0.0263  0.0594
  391CHL    CL2 2134   3.937   3.940   4.222 -0.0468 -0.1376 -0.4443
  391CHL      H 2135   3.839   3.884   4.007 -2.3677 -1.2025  2.7271
  392CHL     CL 2136   0.416   2.680   2.449  0.0117 -0.2740  0.0415
  392CHL      C 2137   0.246   2.676   2.391  0.3095 -0.9186 -1.4576
  392CHL    CL1 2138   0.132   2.728   2.533  0.3429 -0.1315  0.0353
  392CHL    CL2 2139   0.218   2.792   2.262 -0.1089  0.3236  0.2194
  392CHL      H 2140   0.209   2.578   2.360 -2.3922 -0.3027 -0.5383
  393CHL     CL 2141   2.592   2.432   0.426  0.2880 -0.1680  0.1489
  393CHL      C 2142   2.424   2.403   0.380 -0.0605  0.2733 -0.2467
  393CHL    CL1 2143   2.325   2.519   0.476 -0.2087  0.0284 -0.1245
  393CHL    CL2 2144   2.409   2.449   0.202  0.0470 -0.2745  0.3403
  393CHL      H 2145   2.384   2.306   0.411 -0.2390  0.2609 -0.5117
  394CHL     CL 2146   3.913   3.129   0.992  0.1174 -0.3527 -0.0879
  394CHL      C 2147   3.854   3.177   1.147 -0.9163  0.4557  0.3350
  394CHL    CL1 2148   3.809   3.357   1.158 -0.0937 -0.0016  0.0595
  394CHL    CL2 2149   3.720   3.073   1.199  0.0795 -0.0790  0.0296
  394CHL      H 2150   3.943   3.172   1.210  1.2165  0.9783 -2.4694
  395CHL     CL 2151   3.369   2.349   2.840  0.4586 -0.4982 -0.0921
  395CHL      C 2152   3.519   2.277   2.894 -0.1586  0.4778 -0.1576
  395CHL    CL1 2153   3.518   2.106   2.891  0.1126 -0.1619 -0.2833
  395CHL    CL2 2154   3.657   2.333   2.800 -0.1893 -0.2834 -0.4618
  395CHL      H 2155   3.526   2.310   2.999 -0.1160  1.5469 -0.4808
  396CHL     CL 2156   3.429   1.703   1.778 -0.2491 -0.0202 -0.3096
  396CHL      C 2157   3.297   1.755   1.878  0.2256  0.2641  0.1115
  396CHL    CL1 2158   3.231   1.634   1.981  0.2851 -0.3194  0.2377
  396CHL    CL2 2159   3.358   1.896   1.981  0.2319 -0.2557  0.5976
  396CHL      H 2160   3.225   1.795   1.806  0.9564  0.9211 -0.2702
  397CHL     CL 2161   3.143   2.429   4.257 -0.0727 -0.0179  0.0817
  397CHL      C 2162   2.971   2.404   4.293 -0.2382 -0.5632  0.0374
  397CHL    CL1 2163   2.921   2.234   4.254 -0.0597 -0.1031 -0.0483
  397CHL    CL2 2164   2.930   2.423   4.471 -0.3607 -0.5177 -0.0539
  397CHL      H 2165   2.914   2.466   4.223  0.9462  0.7165  0.1645
  398CHL     CL 2166   1.124   2.359   0.406  0.3450  0.1022 -0.0228
  398CHL      C 2167   1.119   2.539   0.383  0.4056  0.7391 -0.2342
  398CHL    CL1 2168   0.999   2.572   0.253  0.1980  0.0095 -0.2221
  398CHL    CL2 2169   1.056   2.611   0.530 -0.0543 -0.0288 -0.1717
  398CHL      H 2170   1.218   2.579   0.358  0.5496  0.3614 -0.2652
  399CHL     CL 2171   3.890   3.341   2.301  0.0725 -0.3136 -0.3369
  399CHL      C 2172   3.984   3.232   2.399  0.9168 -0.1565  0.0646
  399CHL    CL1 2173   4.060   3.316   2.531 -0.3855 -0.1198 -0.1790
  399CHL    CL2 2174   3.880   3.091   2.453 -0.0373  0.2432 -0.1089
  399CHL      H 2175   4.071   3.189   2.347  1.6041  2.2794 -0.8940
  400CHL     CL 2176   2.223   1.425   0.502 -0.3750 -0.0127  0.7224
  400CHL      C 2177   2.103   1.422   0.629 -0.1603  0.0548 -0.5325
  400CHL    CL1 2178   2.182   1.445   0.794  0.0216  0.1996 -0.0320
  400CHL    CL2 2179   1.995   1.564   0.619 -0.1357  0.0481  0.1865
  400CHL      H 2180   2.036   1.335   0.625  0.7143 -0.6171 -0.8365
  401CHL     CL 2181   2.251   0.327   3.132 -0.3305 -0.1212 -0.0911
  401CHL      C 2182   2.252   0.211   2.996 -0.6135 -0.2056  0.2780
  401CHL    CL1 2183   2.352   0.281   2.871  0.0041 -0.2340 -0.3814
  401CHL    CL2 2184   2.313   0.050   3.063  0.0254 -0.0904  0.3723
  401CHL      H 2185   2.150   0.197   2.960 -1.2457  1.9549  1.1124
  402CHL     CL 2186   0.333   2.604   2.821  0.0795 -0.1111 -0.2666
  402CHL      C 2187   0.338   2.545   2.987 -0.9012  0.0817 -0.0419
  402CHL    CL1 2188   0.429   2.645   3.103  0.0574 -0.0784  0.0183
  402CHL    CL2 2189   0.179   2.515   3.067  0.0965 -0.3625 -0.1162
  402CHL      H 2190   0.380   2.444   2.987 -1.5144 -0.1894 -1.0948
  403CHL     CL 2191   2.020   0.250   0.757 -0.3176 -0.4688 -0.6120
  403CHL      C 2192   1.846   0.231   0.734  0.3991 -0.1197 -0.5789
  403CHL    CL1 2193   1.780   0.319   0.586  0.2919  0.4849 -0.3960
  403CHL    CL2 2194   1.807   0.064   0.718 -0.2854 -0.0023  0.1566
  403CHL      H 2195   1.793   0.264   0.824 -0.1081 -0.8042 -0.6179
  404CHL     CL 2196   2.234   3.223   0.347 -0.0612  0.2790 -0.6713
  404CHL      C 2197   2.394   3.289   0.387 -0.2444 -0.4082  0.2859
  404CHL    CL1 2198   2.492   3.296   0.228  0.1886 -0.0366 -0.3002
  404CHL    CL2 2199   2.381   3.448   0.467  0.5050  0.0897 -0.0357
  404CHL      H 2200   2.447   3.210   0.442 -1.2986 -1.0610  0.4014
  405CHL     CL 2201   0.621   2.839   1.079 -0.4906 -0.0279 -0.0510
  405CHL      C 2202   0.613   2.930   1.226  0.4247  0.4354 -0.8004
  405CHL    CL1 2203   0.743   2.878   1.334  0.0472 -0.1283  0.4706
  405CHL    CL2 2204   0.623   3.108   1.200  0.1545 -0.2930 -0.1029
  405CHL      H 2205   0.523   2.907   1.284  0.3863 -0.3653 -1.1599
  406CHL     CL 2206   4.155   3.613   2.140 -0.1306 -0.2729 -0.0926
  406CHL      C 2207   4.212   3.621   2.315  0.0165 -0.7288 -0.8153
  406CHL    CL1 2208   4.315   3.483   2.363  0.2194 -0.2859 -0.0970
  406CHL    CL2 2209   4.309   3.777   2.329 -0.1792 -0.1558  0.1851
  406CHL      H 2210   4.128   3.633   2.384 -0.7956  1.4159 -2.1050
  407CHL     CL 2211   1.324   2.180   3.019 -0.3336  0.0740 -0.4583
  407CHL      C 2212   1.297   2.356   3.039 -0.4290 -0.1134 -0.4038
  407CHL    CL1 2213   1.135   2.414   2.974 -0.1012 -0.0656 -0.1657
  407CHL    CL2 2214   1.293   2.406   3.210 -0.0664  0.3201 -0.4970
  407CHL      H 2215   1.379   2.416   2.998 -0.1011 -0.5993 -0.4658
  408CHL     CL 2216   4.124   1.332   2.971  0.2807 -0.2789  0.1729
  408CHL      C 2217   4.248   1.224   2.904 -0.3581 -0.3050  0.4498
  408CHL    CL1 2218   4.390   1.217   3.019 -0.2102 -0.1648 -0.3621
  408CHL    CL2 2219   4.173   1.059   2.888 -0.0939 -0.2381 -0.1621
  408CHL      H 2220   4.272   1.260   2.804 -2.9293 -1.1123 -0.5323
  409CHL     CL 2221   2.840   2.832   1.702  0.2363 -0.1698  0.3677
  409CHL      C 2222   2.755   2.806   1.541  0.1667  0.0203 -0.0551
  409CHL    CL1 2223   2.837   2.677   1.437  0.4129  0.0468  0.0539
  409CHL    CL2 2224   2.591   2.743   1.568  0.2117  0.0785  0.1186
  409CHL      H 2225   2.751   2.891   1.473  3.4262 -0.7789 -1.4538
  410CHL     CL 2226   0.945   1.358   0.551  0.1350 -0.2519 -0.0776
  410CHL      C 2227   0.791   1.329   0.448  0.4746 -0.0559 -0.5876
  410CHL    CL1 2228   0.774   1.443   0.315  0.0600 -0.0821  0.3674
  410CHL    CL2 2229   0.793   1.160   0.382  0.0725  0.4778  0.1426
  410CHL      H 2230   0.712   1.349   0.522  1.6385  1.5135  0.2783
  411CHL     CL 2231   1.107   1.457   0.161  0.1062  0.3209 -0.2275
  411CHL      C 2232   1.277   1.497   0.194 -0.5264  0.1710 -0.2098
  411CHL    CL1 2233   1.388   1.467   0.054 -0.0197  0.3289 -0.0464
  411CHL    CL2 2234   1.281   1.663   0.242  0.3531  0.0939 -0.0122
  411CHL      H 2235   1.303   1.427   0.274 -1.2361 -0.5088 -0.5608
  412CHL     CL 2236   2.282   2.812   2.314  0.0880 -0.1942 -0.5098
  412CHL      C 2237   2.228   2.957   2.406 -0.1913  0.8939  0.1446
  412CHL    CL1 2238   2.051   2.946   2.425 -0.5333  0.4146 -0.3650
  412CHL    CL2 2239   2.303   2.938   2.573  0.1592 -0.0996 -0.1682
  412CHL      H 2240   2.265   3.052   2.365  1.5630  1.3593  2.6037
  413CHL     CL 2241   1.876   1.874   4.297  0.2021 -0.3887 -0.0056
  413CHL      C 2242   2.028   1.793   4.252  0.2389  0.4294  0.0199
  413CHL    CL1 2243   2.149   1.902   4.195 -0.0937 -0.0260  0.1251
  413CHL    CL2 2244   2.093   1.699   4.391 -0.3976 -0.2456  0.3297
  413CHL      H 2245   2.002   1.717   4.177 -0.9240  1.3580 -0.5536
  414CHL     CL 2246   1.624   1.763   0.160  0.1780  0.0958  0.0569
  414CHL      C 2247   1.717   1.680   0.285  0.2649  0.4359  0.6902
  414CHL    CL1 2248   1.821   1.783   0.386 -0.1648  0.1191  0.0265
  414CHL    CL2 2249   1.610   1.607   0.400  0.0479 -0.0313 -0.1513
  414CHL      H 2250   1.776   1.600   0.238 -1.5688 -1.2826  1.1779
  415CHL     CL 2251   0.343   3.927   1.962 -0.2410  0.4727  0.1168
  415CHL      C 2252   0.388   4.021   2.106  0.6469  0.7811 -0.2281
  415CHL    CL1 2253   0.426   4.191   2.065  0.3256 -0.1621  0.4097
  415CHL    CL2 2254   0.244   4.006   2.226  0.0868  0.5865  0.3134
  415CHL      H 2255   0.470   3.964   2.151 -0.7431 -2.0583 -1.0168
  416CHL     CL 2256   2.031   4.156   0.109 -0.4661  0.2563 -0.4043
  416CHL      C 2257   2.108   4.102  -0.055  0.4386  0.1793 -0.2553
  416CHL    CL1 2258   2.018   3.952  -0.095  0.2162 -0.3569  0.2763
  416CHL    CL2 2259   2.077   4.223  -0.194  0.7128 -0.1028 -0.3994
  416CHL      H 2260   2.211   4.069  -0.039 -0.1456 -1.3918  0.4423
  417CHL     CL 2261   2.926   1.754   0.367  0.2401  0.0999  0.1680
  417CHL      C 2262   2.779   1.651   0.352 -0.0507 -0.0063  0.5015
  417CHL    CL1 2263   2.699   1.647   0.514  0.3012 -0.1920  0.0232
  417CHL    CL2 2264   2.659   1.717   0.232 -0.4427  0.3051  0.2431
  417CHL      H 2265   2.802   1.551   0.313 -2.4517 -0.1327 -0.7656
  418CHL     CL 2266   1.149   1.783   2.613 -0.3198  0.2378  0.0180
  418CHL      C 2267   1.232   1.809   2.455  0.1255 -0.6491  0.0602
  418CHL    CL1 2268   1.410   1.771   2.470  0.2334  0.0904  0.1019
  418CHL    CL2 2269   1.170   1.702   2.332 -0.0660 -0.0906 -0.0383
  418CHL      H 2270   1.221   1.911   2.415 -0.6261 -0.9030 -0.3902
  419CHL     CL 2271   1.591   2.133   2.176  0.4085  0.4832  0.0945
  419CHL      C 2272   1.526   2.135   2.010  0.0458  0.5883 -0.0724
  419CHL    CL1 2273   1.423   1.986   1.990 -0.0448  0.2849 -0.0452
  419CHL    CL2 2274   1.413   2.267   1.990  0.0238 -0.0554 -0.4203
  419CHL      H 2275   1.596   2.132   1.926 -2.0873  0.7978 -1.9572
  420CHL     CL 2276   2.013   0.363   4.238  0.1200  0.1946  0.1475
  420CHL      C 2277   1.976   0.229   4.343  0.4763  0.6620  0.2212
  420CHL    CL1 2278   1.984   0.286   4.512  0.1123 -0.1985  0.2642
  420CHL    CL2 2279   1.805   0.167   4.315 -0.2629  0.0388  0.0906
  420CHL      H 2280   2.049   0.148   4.333 -0.2800 -0.0090 -0.0270
  421CHL     CL 2281   1.550   0.379   4.114 -0.3905 -0.0822 -0.2310
  421CHL      C 2282   1.711   0.465   4.116 -0.7538 -0.9199 -0.0725
  421CHL    CL1 2283   1.731   0.576   3.980 -0.0035  0.3808 -0.0626
  421CHL    CL2 2284   1.728   0.541   4.283  0.7076  0.0186 -0.0070
  421CHL      H 2285   1.792   0.391   4.111  1.6945  1.6830 -1.4740
  422CHL     CL 2286   1.040   0.354   0.859 -0.2602  0.6005  0.0386
  422CHL      C 2287   1.078   0.511   0.938 -0.2522 -0.3768 -0.5252
  422CHL    CL1 2288   1.185   0.492   1.076 -0.0612 -0.0394 -0.5931
  422CHL    CL2 2289   1.162   0.610   0.817  0.3934  0.3327 -0.0288
  422CHL      H 2290   0.990   0.571   0.964 -0.9830 -0.5214 -2.4995
  423CHL     CL 2291   0.885   3.245   0.038  0.2683 -0.0103 -0.1221
  423CHL      C 2292   0.975   3.377  -0.057  0.2722 -0.9219  0.0283
  423CHL    CL1 2293   0.921   3.546  -0.017 -0.0068  0.1259 -0.1619
  423CHL    CL2 2294   1.149   3.349  -0.032 -0.0002 -0.1647  0.2094
  423CHL      H 2295   0.959   3.355  -0.163  2.4985 -0.7013 -0.3955
  424CHL     CL 2296   0.978   2.063   2.508  0.0897 -0.0960 -0.3383
  424CHL      C 2297   0.899   2.090   2.672 -0.0053  0.2096 -0.0071
  424CHL    CL1 2298   0.785   1.950   2.703  0.2615 -0.3580 -0.0530
  424CHL    CL2 2299   1.020   2.101   2.807  0.1789  0.0730 -0.0511
  424CHL      H 2300   0.837   2.178   2.649 -1.0725 -0.4183  0.4149
  425CHL     CL 2301   3.098   3.466   2.836  0.1945  0.4024 -0.4113
  425CHL      C 2302   3.238   3.448   2.957  0.0620  0.2235  1.5611
  425CHL    CL1 2303   3.371   3.551   2.926  0.5030  0.1169 -0.2378
  425CHL    CL2 2304   3.175   3.490   3.124  0.3740  0.0691  0.2661
  425CHL      H 2305   3.279   3.346   2.952  1.2336  0.6625  1.8201
  426CHL     CL 2306   1.035   0.840   4.183 -0.2894  0.1595  0.0884
  426CHL      C 2307   0.895   0.846   4.291  0.0645  0.3182 -0.0856
  426CHL    CL1 2308   0.882   0.704   4.399 -0.1158  0.3511 -0.1651
  426CHL    CL2 2309   0.889   1.000   4.388  0.0646 -0.4456  0.1364
  426CHL      H 2310   0.812   0.837   4.220  1.8644  2.6466 -2.6821
  427CHL     CL 2311   1.471   1.477   2.986 -0.3507 -0.1949  0.1181
  427CHL      C 2312   1.522   1.628   2.901 -0.2327  0.2627  0.4803
  427CHL    CL1 2313   1.659   1.589   2.788 -0.0762 -0.1040  0.2194
  427CHL    CL2 2314   1.381   1.681   2.809 -0.7805 -0.2637 -0.3051
  427CHL      H 2315   1.549   1.704   2.975 -0.0544 -1.5038  2.3333
  428CHL     CL 2316   0.854   0.575   2.472 -0.1437  0.1291  0.0241
  428CHL      C 2317   1.019   0.625   2.417 -0.1233 -0.0459  1.0404
  428CHL    CL1 2318   1.143   0.541   2.509  0.3430  0.0884  0.2179
  428CHL    CL2 2319   1.042   0.616   2.232 -0.1465 -0.0769 -0.2546
  428CHL      H 2320   1.027   0.731   2.446 -0.1373  0.2336  0.0463
  429CHL     CL 2321   4.284   4.114   2.696 -0.2519  0.1809 -0.0312
  429CHL      C 2322   4.288   4.215   2.542 -0.4121  0.0337  0.0097
  429CHL    CL1 2323   4.257   4.381   2.596  0.0042 -0.0765  0.1061
  429CHL    CL2 2324   4.449   4.199   2.457  0.4674  0.0924  0.4445
  429CHL      H 2325   4.213   4.181   2.470  1.4290 -1.2082 -1.4473
  430CHL     CL 2326   0.115   2.922   0.953  0.2112 -0.1122 -0.1844
  430CHL      C 2327   0.032   3.028   1.077  0.0553  0.2619 -0.2327
  430CHL    CL1 2328   0.129   3.027   1.233 -0.4046  0.0251 -0.1451
  430CHL    CL2 2329   0.029   3.193   1.002 -0.2534  0.0957 -0.1839
  430CHL      H 2330  -0.068   2.988   1.098  0.3816 -0.4486  0.0126
  431CHL     CL 2331   2.396   3.077   1.926 -0.0337 -0.0679 -0.0393
  431CHL      C 2332   2.397   3.028   1.761  0.2352 -0.4086  0.9198
  431CHL    CL1 2333   2.542   3.056   1.675 -0.0066 -0.4787 -0.3419
  431CHL    CL2 2334   2.340   2.857   1.747 -0.0269 -0.2965 -0.0715
  431CHL      H 2335   2.328   3.096   1.710  1.2763  0.6154  0.8512
  432CHL     CL 2336   1.006   0.125   3.666  0.4804  0.1978 -0.3305
  432CHL      C 2337   1.037  -0.048   3.665 -0.4920 -0.1128 -0.3830
  432CHL    CL1 2338   0.886  -0.147   3.677 -0.2740 -0.0471 -0.2035
  432CHL    CL2 2339   1.123  -0.096   3.516 -0.4448  0.1381  0.0063
  432CHL      H 2340   1.106  -0.072   3.747  0.0626  0.4609 -0.6725
  433CHL     CL 2341   0.014   0.962   1.631  0.1026  0.1241  0.5535
  433CHL      C 2342   0.183   1.005   1.656  0.0257 -0.3605  0.4683
  433CHL    CL1 2343   0.263   1.103   1.522  0.2028 -0.3038  0.0352
  433CHL    CL2 2344   0.200   1.073   1.816  0.3281  0.4328  0.1672
  433CHL      H 2345   0.248   0.917   1.661  0.9378  0.2711 -0.0558
  434CHL     CL 2346   1.466   3.895   4.165 -0.4232  0.0267 -0.2502
  434CHL      C 2347   1.426   3.716   4.185 -0.5989 -0.5149 -0.3954
  434CHL    CL1 2348   1.274   3.698   4.294 -0.0539 -0.2076  0.0720
  434CHL    CL2 2349   1.407   3.622   4.031  0.1325  0.0278  0.0495
  434CHL      H 2350   1.513   3.675   4.236 -1.2421 -0.9415  0.3803
  435CHL     CL 2351   2.762   4.074   0.472  0.0336 -0.3042  0.1946
  435CHL      C 2352   2.920   4.161   0.509  0.3003 -0.2566  0.0009
  435CHL    CL1 2353   3.002   4.077   0.638 -0.2428  0.0499 -0.0452
  435CHL    CL2 2354   3.028   4.159   0.365 -0.2346  0.1164 -0.0663
  435CHL      H 2355   2.903   4.266   0.535 -0.8746 -0.6578  0.8831
  436CHL     CL 2356   0.844   1.402   2.963 -0.1947 -0.2218  0.3245
  436CHL      C 2357   0.811   1.570   3.008 -0.0152 -0.6969  0.3424
  436CHL    CL1 2358   0.671   1.655   2.930 -0.1251  0.0560 -0.2695
  436CHL    CL2 2359   0.800   1.585   3.190  0.2872 -0.0544  0.1013
  436CHL      H 2360   0.901   1.621   2.973  0.4756  0.0710  2.5196
  437CHL     CL 2361   1.448   2.389   2.750 -0.1077 -0.2139 -0.0918
  437CHL      C 2362   1.469   2.435   2.576  0.7139 -1.0091 -0.6893
  437CHL    CL1 2363   1.587   2.320   2.490  0.0755  0.0059 -0.0808
  437CHL    CL2 2364   1.299   2.430   2.492 -0.1329 -0.4228  0.2829
  437CHL      H 2365   1.516   2.533   2.562  0.0426 -0.5437  0.2228
  438CHL     CL 2366   3.422   2.150   3.486  0.4779  0.1648 -0.4318
  438CHL      C 2367   3.373   2.176   3.663 -0.2512 -0.1976 -0.2993
  438CHL    CL1 2368   3.380   2.350   3.711  0.0209  0.0003 -0.0764
  438CHL    CL2 2369   3.201   2.124   3.680  0.0480  0.1984 -0.0110
  438CHL      H 2370   3.436   2.119   3.731 -1.3474 -1.3676 -0.2164
  439CHL     CL 2371   4.221   3.969   3.129  0.3004  0.1344 -0.3097
  439CHL      C 2372   4.338   3.845   3.191 -0.8934 -0.3654  0.2612
  439CHL    CL1 2373   4.272   3.769   3.334 -0.2643  0.0029  0.1318
  439CHL    CL2 2374   4.360   3.718   3.051  0.1315  0.2498  0.1996
  439CHL      H 2375   4.424   3.906   3.220  1.4134 -3.7486  1.1747
  440CHL     CL 2376   3.195   0.996   2.791 -0.2400 -0.5671  0.1774
  440CHL      C 2377   3.241   0.862   2.898 -0.2667 -0.9085 -0.1149
  440CHL    CL1 2378   3.167   0.869   3.066 -0.5111  0.1686  0.8554
  440CHL    CL2 2379   3.207   0.704   2.820 -0.5436  0.0976  0.2229
  440CHL      H 2380   3.350   0.869   2.906  0.1029 -2.9166 -2.2840
  441CHL     CL 2381   3.015   0.643   1.629  0.4679  0.2696  0.3395
  441CHL      C 2382   2.869   0.745   1.608 -0.2277  0.3313 -0.3320
  441CHL    CL1 2383   2.727   0.654   1.677  0.0674  0.0659 -0.0487
  441CHL    CL2 2384   2.887   0.901   1.675 -0.0782  0.1410  0.4275
  441CHL      H 2385   2.855   0.757   1.500  0.5360  0.4569 -0.4262
  442CHL     CL 2386   4.049   2.036   2.399  0.1544 -0.1901 -0.1766
  442CHL      C 2387   3.980   2.030   2.568 -0.9990 -0.8563  0.2478
  442CHL    CL1 2388   4.111   1.956   2.673  0.4246 -0.1765  0.0478
  442CHL    CL2 2389   3.942   2.190   2.634  0.0879  0.0026 -0.0557
  442CHL      H 2390   3.896   1.959   2.568 -0.9100 -0.9629  0.5014
  443CHL     CL 2391   0.947   1.652   1.708 -0.0267 -0.0697 -0.1430
  443CHL      C 2392   0.893   1.532   1.815 -0.0675  0.6838 -0.1463
  443CHL    CL1 2393   0.814   1.596   1.954 -0.1725 -0.5013  0.3937
  443CHL    CL2 2394   0.777   1.441   1.727 -0.4510  0.2741  0.1258
  443CHL      H 2395   0.970   1.461   1.846  0.1784  0.9750 -0.0943
  444CHL     CL 2396   0.719   4.162   2.267  0.2289 -0.2468  0.2314
  444CHL      C 2397   0.661   4.243   2.410  0.1871 -0.4704  0.0945
  444CHL    CL1 2398   0.773   4.372   2.434  0.1500 -0.0920 -0.2006
  444CHL    CL2 2399   0.492   4.305   2.396  0.0981 -0.3919 -0.3159
  444CHL      H 2400   0.669   4.166   2.487  0.7187 -0.1128  0.4088
  445CHL     CL 2401   4.366   2.616   0.377 -0.4526  0.2189 -0.0248
  445CHL      C 2402   4.482   2.696   0.487 -0.7825  0.1239 -0.2820
  445CHL    CL1 2403   4.404   2.740   0.648 -0.1180 -0.1670  0.2512
  445CHL    CL2 2404   4.622   2.590   0.520  0.3475 -0.2008  0.2408
  445CHL      H 2405   4.522   2.789   0.447 -0.6618 -1.4626 -4.3060
  446CHL     CL 2406   0.037   0.595   0.756 -0.1014  0.0848 -0.6309
  446CHL      C 2407   0.140   0.447   0.754 -0.1052 -0.0814  0.1926
  446CHL    CL1 2408   0.287   0.457   0.855 -0.0398 -0.3260 -0.3549
  446CHL    CL2 2409   0.041   0.320   0.817  0.2887 -0.0050  0.1818
  446CHL      H 2410   0.172   0.412   0.656 -0.6554 -0.9380  0.3121
  447CHL     CL 2411   1.201   2.467   4.013 -0.2784 -0.0071 -0.4515
  447CHL      C 2412   1.355   2.450   3.938  0.4303 -0.0300 -0.3780
  447CHL    CL1 2413   1.359   2.307   3.818  0.1723  0.0077 -0.0144
  447CHL    CL2 2414   1.406   2.602   3.851  0.4141  0.3852 -0.2441
  447CHL      H 2415   1.430   2.420   4.012 -0.1403 -0.2238  0.1279
  448CHL     CL 2416   1.738   3.066   3.312 -0.2825 -0.0708  0.1955
  448CHL      C 2417   1.856   3.186   3.291 -0.3003  0.1326 -0.3142
  448CHL    CL1 2418   1.896   3.222   3.122 -0.0118  0.0079 -0.1082
  448CHL    CL2 2419   1.804   3.342   3.376  0.0246  0.1409  0.2112
  448CHL      H 2420   1.946   3.145   3.338  0.6467 -1.1875 -3.0422
  449CHL     CL 2421   3.257   1.863   2.728  0.0755  0.0660 -0.1722
  449CHL      C 2422   3.090   1.825   2.676  0.2743  0.0842  0.7865
  449CHL    CL1 2423   3.028   1.669   2.745 -0.0753  0.4071 -0.3404
  449CHL    CL2 2424   2.974   1.951   2.727  0.4212 -0.4221 -0.3597
  449CHL      H 2425   3.078   1.821   2.567 -3.1667  0.1071  1.0513
  450CHL     CL 2426   1.614   3.572   2.656 -0.0096  0.4624  0.2321
  450CHL      C 2427   1.588   3.728   2.572  0.1756 -0.2153 -1.3425
  450CHL    CL1 2428   1.589   3.872   2.681  0.4538  0.2955 -0.0571
  450CHL    CL2 2429   1.714   3.759   2.449  0.4630  0.0877  0.3234
  450CHL      H 2430   1.491   3.722   2.521 -0.6973 -0.5246  0.2972
  451CHL     CL 2431   2.487   1.475   1.299 -0.1410  0.5832  0.0008
  451CHL      C 2432   2.619   1.364   1.354  0.2628  0.0631 -0.3454
  451CHL    CL1 2433   2.584   1.292   1.510 -0.3455  0.1304  0.2988
  451CHL    CL2 2434   2.670   1.247   1.227  0.5814  0.0147  0.1069
  451CHL      H 2435   2.708   1.424   1.376 -1.3750  2.4578  0.2428
  452CHL     CL 2436   3.423   0.792   1.745  0.0155  0.3668 -0.1255
  452CHL      C 2437   3.371   0.863   1.911 -0.3204  0.2302  0.2138
  452CHL    CL1 2438   3.494   0.979   1.971  0.3668 -0.2555 -0.1237
  452CHL    CL2 2439   3.209   0.947   1.900  0.0859  0.3382  0.0147
  452CHL      H 2440   3.370   0.787   1.990  1.4312 -1.3583 -1.2112
  453CHL     CL 2441   0.992   0.926   1.005  0.1871  0.1962 -0.0878
  453CHL      C 2442   0.853   0.902   0.894 -0.2726 -0.3974 -0.9672
  453CHL    CL1 2443   0.886   0.983   0.742 -0.3977 -0.0570  0.2999
  453CHL    CL2 2444   0.816   0.728   0.891 -0.0361  0.0574 -0.1461
  453CHL      H 2445   0.767   0.947   0.945 -0.2934 -1.5244  0.0382
  454CHL     CL 2446   3.889   2.600   0.950  0.0223  0.2016 -0.0261
  454CHL      C 2447   3.930   2.771   0.890  0.3700 -0.3045  0.1656
  454CHL    CL1 2448   4.079   2.832   0.976  0.2565  0.2379 -0.5171
  454CHL    CL2 2449   3.976   2.766   0.715  0.0625 -0.3260  0.1599
  454CHL      H 2450   3.850   2.846   0.892  0.1398 -0.5568  1.3674
  455CHL     CL 2451   2.822   1.831   2.419 -0.1024 -0.0745  0.2560
  455CHL      C 2452   2.939   1.838   2.289 -0.3128 -0.2208  0.0779
  455CHL    CL1 2453   3.106   1.805   2.325 -0.4026 -0.5141 -0.1484
  455CHL    CL2 2454   2.880   1.711   2.172 -0.1933  0.1531 -0.1888
  455CHL      H 2455   2.942   1.933   2.234 -1.0618 -0.4058 -0.2905
  456CHL     CL 2456   0.389   0.209   3.420 -0.0638  0.3191  0.6906
  456CHL      C 2457   0.439   0.283   3.580 -0.5056  0.1656  0.2991
  456CHL    CL1 2458   0.593   0.206   3.629  0.1903 -0.6065  0.2262
  456CHL    CL2 2459   0.451   0.464   3.571  0.1776 -0.1049  0.4291
  456CHL      H 2460   0.362   0.255   3.652 -1.0952 -1.1800 -0.7930
  457CHL     CL 2461   2.869   3.140   2.379 -0.0856  0.0459  0.6760
  457CHL      C 2462   2.701   3.094   2.411  0.0267  0.2941  0.6293
  457CHL    CL1 2463   2.621   3.084   2.264  0.0012 -0.1227  0.0042
  457CHL    CL2 2464   2.687   2.929   2.496  0.5603  0.0775  0.1162
  457CHL      H 2465   2.651   3.165   2.478 -2.7891 -0.5202 -0.4603
  458CHL     CL 2466   2.817   3.503   3.646  0.2561  0.0600 -0.0767
  458CHL      C 2467   2.894   3.354   3.581  0.4293 -0.0049  0.0061
  458CHL    CL1 2468   2.802   3.212   3.646 -0.4246 -0.0528  0.0854
  458CHL    CL2 2469   2.886   3.343   3.397 -0.3519 -0.4461  0.1245
  458CHL      H 2470   2.999   3.357   3.611  0.1634  1.5171  0.9126
  459CHL     CL 2471   0.649   2.118   0.539 -0.5096  0.0358  0.0265
  459CHL      C 2472   0.632   2.247   0.410 -0.2588 -0.0469  0.1821
  459CHL    CL1 2473   0.597   2.179   0.245 -0.0054  0.3221 -0.3398
  459CHL    CL2 2474   0.508   2.373   0.439 -0.0375  0.0215  0.2060
  459CHL      H 2475   0.731   2.293   0.404 -0.6332  0.6105 -1.5463
  460CHL     CL 2476   2.351   3.967   2.300 -0.3111  0.0600  0.3567
  460CHL      C 2477   2.466   4.067   2.205  0.1459 -0.4490  0.1139
  460CHL    CL1 2478   2.390   4.166   2.072 -0.3935 -0.0556 -0.0080
  460CHL    CL2 2479   2.533   4.179   2.323 -0.3168  0.4444  0.1820
  460CHL      H 2480   2.549   4.008   2.165  1.0797  1.7242 -1.3411
  461CHL     CL 2481   3.971   0.360   2.573  0.1802 -0.2377  0.1832
  461CHL      C 2482   3.827   0.358   2.675  0.0777  0.0758 -0.1873
  461CHL    CL1 2483   3.856   0.455   2.821  0.0407  0.3665 -0.0916
  461CHL    CL2 2484   3.694   0.445   2.600 -0.0776  0.4602  0.6033
  461CHL      H 2485   3.798   0.254   2.692  1.9152 -0.6162 -1.0957
  462CHL     CL 2486   2.818   0.753   0.447 -0.0142 -0.7362  0.2767
  462CHL      C 2487   2.717   0.748   0.301 -0.5067 -0.1144  0.3462
  462CHL    CL1 2488   2.548   0.788   0.334  0.2357 -0.3046 -0.2296
  462CHL    CL2 2489   2.793   0.849   0.164 -0.3423  0.2911  0.3225
  462CHL      H 2490   2.719   0.651   0.251 -2.1641  1.2882 -2.7984
  463CHL     CL 2491   1.716   3.931   0.601  0.3650  0.3941 -0.0213
  463CHL      C 2492   1.757   4.023   0.454 -0.4324  0.4006  0.4796
  463CHL    CL1 2493   1.928   3.983   0.404  0.3036 -0.6153  0.5790
  463CHL    CL2 2494   1.628   3.992   0.331 -0.5266  0.0350 -0.1568
  463CHL      H 2495   1.757   4.128   0.485 -1.1480  0.3980  0.5057
  464CHL     CL 2496   0.008   0.753   2.034  0.1538 -0.5248 -0.2282
  464CHL      C 2497   0.097   0.753   2.186 -1.1981 -0.1373  0.1391
  464CHL    CL1 2498   0.008   0.666   2.314 -0.4729  0.6685  0.3460
  464CHL    CL2 2499   0.251   0.670   2.171  0.1827 -0.0540 -0.3889
  464CHL      H 2500   0.113   0.856   2.218  0.4034  0.5516 -2.5818
  465CHL     CL 2501   0.318   2.038   0.364  0.2958 -0.0733 -0.1509
  465CHL      C 2502   0.210   2.114   0.486 -0.5258  0.6034 -0.7901
  465CHL    CL1 2503   0.046   2.040   0.471  0.4426 -0.0103 -0.4166
  465CHL    CL2 2504   0.274   2.075   0.649 -0.0353 -0.2043 -0.0698
  465CHL      H 2505   0.197   2.222   0.476 -1.0176  0.5759 -0.4841
  466CHL     CL 2506   0.630   3.103   1.602  0.1739  0.0099 -0.3518
  466CHL      C 2507   0.619   3.195   1.759 -0.0973 -0.3472  0.3287
  466CHL    CL1 2508   0.467   3.299   1.765 -0.3706 -0.0469 -0.0110
  466CHL    CL2 2509   0.634   3.088   1.896  0.2604  0.2085  0.0510
  466CHL      H 2510   0.703   3.265   1.773  0.2842 -0.7982  0.3131
  467CHL     CL 2511   3.692   3.117   3.280 -0.4333  0.0781 -0.2824
  467CHL      C 2512   3.650   3.175   3.126  0.4323  0.3124 -0.8777
  467CHL    CL1 2513   3.507   3.079   3.074  0.4384  0.0642  0.2419
  467CHL    CL2 2514   3.604   3.354   3.134  0.2946 -0.0787  0.4311
  467CHL      H 2515   3.738   3.168   3.062  1.3411 -1.0788  0.4490
  468CHL     CL 2516   1.406   4.285   3.686  0.0963  0.4348  0.2356
  468CHL      C 2517   1.440   4.315   3.860  0.2946 -0.2065  0.6512
  468CHL    CL1 2518   1.278   4.381   3.934  0.1374 -0.1181 -0.3368
  468CHL    CL2 2519   1.481   4.152   3.932  0.0746  0.4817 -0.4076
  468CHL      H 2520   1.520   4.390   3.858  0.9073 -0.8178  1.5458
  469CHL     CL 2521   0.361   2.849   1.724 -0.1284 -0.2672 -0.1428
  469CHL      C 2522   0.215   2.921   1.812  0.2028  0.4370  0.1357
  469CHL    CL1 2523   0.159   3.066   1.720  0.0159 -0.3990  0.4778
  469CHL    CL2 2524   0.077   2.807   1.805  0.2787 -0.1243 -0.3100
  469CHL      H 2525   0.238   2.951   1.915 -1.5512  3.1164 -0.1473
  470CHL     CL 2526   2.477   4.177   3.332  0.1296  0.4546  0.2802
  470CHL      C 2527   2.561   4.119   3.179 -0.3814  0.2645 -0.7810
  470CHL    CL1 2528   2.719   4.031   3.224  0.2283  0.3417  0.6626
  470CHL    CL2 2529   2.457   4.016   3.066  0.3930 -0.2106 -0.2427
  470CHL      H 2530   2.589   4.208   3.121  1.2048  0.8075  0.7282
  471CHL     CL 2531   0.678   3.385   3.364 -0.0648  0.1230 -0.0612
  471CHL      C 2532   0.549   3.416   3.488  0.0220 -0.1011  0.0685
  471CHL    CL1 2533   0.393   3.407   3.417  0.2813 -0.1063  0.5141
  471CHL    CL2 2534   0.563   3.296   3.609 -0.1277  0.0183 -0.2261
  471CHL      H 2535   0.561   3.515   3.532 -1.3998 -0.1787  0.6995
  472CHL     CL 2536   0.717   1.315   4.234 -0.1289  0.2540 -0.1666
  472CHL      C 2537   0.555   1.214   4.246  1.1842  0.1351 -0.5963
  472CHL    CL1 2538   0.554   1.113   4.406 -0.0890  0.0995 -0.2397
  472CHL    CL2 2539   0.416   1.328   4.250 -0.3496  0.1438  0.5157
  472CHL      H 2540   0.528   1.158   4.156 -2.0649  0.8447 -0.1814
  473CHL     CL 2541   3.492   4.118   2.801 -0.0219  0.0560 -0.2456
  473CHL      C 2542   3.319   4.098   2.805 -0.5131  0.2771  0.3754
  473CHL    CL1 2543   3.251   4.142   2.648 -0.2157 -0.0293  0.0404
  473CHL    CL2 2544   3.277   3.929   2.842 -0.2140 -0.2925 -0.0767
  473CHL      H 2545   3.277   4.168   2.878  0.3392  0.4575  0.7094
  474CHL     CL 2546   2.425   2.146   3.688  0.1201  0.3922 -0.1374
  474CHL      C 2547   2.388   2.191   3.516  0.3343  0.5821  0.0981
  474CHL    CL1 2548   2.382   2.037   3.414 -0.0278 -0.1657  0.0580
  474CHL    CL2 2549   2.223   2.255   3.505 -0.0019 -0.1964 -0.5537
  474CHL      H 2550   2.461   2.263   3.478  0.6016  0.7153  0.8492
  475CHL     CL 2551   0.500   2.039   2.917  0.0027  0.0931 -0.0896
  475CHL      C 2552   0.415   2.005   3.074 -0.0652 -0.9581  0.3503
  475CHL    CL1 2553   0.536   1.948   3.206  0.4795 -0.1834 -0.1175
  475CHL    CL2 2554   0.346   2.161   3.117 -0.4020  0.1785  0.0860
  475CHL      H 2555   0.334   1.932   3.070  0.3594 -1.4323  0.3858
  476CHL     CL 2556   2.814   2.750   0.928  0.0125  0.0304  0.0840
  476CHL      C 2557   2.842   2.649   1.068 -0.4856 -0.1261 -0.0789
  476CHL    CL1 2558   2.698   2.544   1.097  0.2629 -0.1569 -0.3261
  476CHL    CL2 2559   2.992   2.556   1.057  0.2555  0.3595 -0.1550
  476CHL      H 2560   2.848   2.718   1.153 -0.4067 -2.4708  1.9300
  477CHL     CL 2561   3.473   2.562   0.401  0.0779  0.1816  0.0839
  477CHL      C 2562   3.501   2.436   0.277 -0.3250  0.4138  0.3577
  477CHL    CL1 2563   3.344   2.400   0.198  0.2536 -0.2495  0.4261
  477CHL    CL2 2564   3.634   2.493   0.162 -0.2031 -0.4033  0.0222
  477CHL      H 2565   3.537   2.346   0.328 -1.2532 -1.0356 -1.4096
  478CHL     CL 2566   0.160   1.774   3.845 -0.2131 -0.2645 -0.3460
  478CHL      C 2567   0.332   1.745   3.897  0.7602 -0.1659 -0.2529
  478CHL    CL1 2568   0.397   1.883   3.990  0.1372  0.3623  0.2175
  478CHL    CL2 2569   0.344   1.611   4.019  0.1842  0.2749  0.3057
  478CHL      H 2570   0.396   1.729   3.809 -0.7465 -0.7029 -1.2906
  479CHL     CL 2571   0.029   0.532   1.785 -0.3451  0.2534 -0.0665
  479CHL      C 2572  -0.063   0.443   1.913 -0.1649  0.8246  0.0076
  479CHL    CL1 2573  -0.173   0.320   1.833 -0.3578 -0.2534  0.0864
  479CHL    CL2 2574   0.043   0.359   2.030 -0.3622  0.0688  0.7490
  479CHL      H 2575  -0.122   0.517   1.967  3.6007  2.6428  1.9602
  480CHL     CL 2576   3.965   1.567   4.260 -0.1123 -0.0839 -0.2469
  480CHL      C 2577   3.943   1.525   4.092  0.2210  0.2530 -0.1412
  480CHL    CL1 2578   4.089   1.580   3.999  0.1154 -0.0787 -0.0408
  480CHL    CL2 2579   3.917   1.348   4.066  0.2706 -0.0937  0.1382
  480CHL      H 2580   3.856   1.576   4.049 -0.6737 -0.1859  1.0694
  481CHL     CL 2581   0.637   1.097   2.258 -0.2033 -0.1194 -0.6147
  481CHL      C 2582   0.715   0.999   2.134 -0.1241  0.4473 -0.0212
  481CHL    CL1 2583   0.770   1.105   1.998 -0.1502  0.1060  0.0231
  481CHL    CL2 2584   0.868   0.912   2.194  0.0748  0.0259  0.0052
  481CHL      H 2585   0.648   0.922   2.093  0.7899 -0.0118 -0.6770
  482CHL     CL 2586   3.361   0.126   3.034 -0.2148  0.1115 -0.0253
  482CHL      C 2587   3.445   0.048   3.168 -0.3230  0.4538  0.5691
  482CHL    CL1 2588   3.330  -0.002   3.288 -0.0063 -0.1585  0.1131
  482CHL    CL2 2589   3.553  -0.095   3.108  0.0392 -0.2028 -0.0768
  482CHL      H 2590   3.513   0.126   3.205  0.9359  0.9848 -2.5463
  483CHL     CL 2591   0.334   4.257   2.748 -0.1116 -0.2647 -0.0131
  483CHL      C 2592   0.264   4.097   2.745  0.7556 -0.6059 -0.0106
  483CHL    CL1 2593   0.352   4.004   2.624  0.1783  0.2907  0.1371
  483CHL    CL2 2594   0.285   4.013   2.913  0.4502 -0.4287 -0.3265
  483CHL      H 2595   0.157   4.108   2.727  0.4344 -0.3011  1.8820
  484CHL     CL 2596   4.197   2.669   3.268  0.0333  0.1319 -0.2342
  484CHL      C 2597   4.254   2.794   3.378  0.9141 -0.5721  0.6513
  484CHL    CL1 2598   4.377   2.895   3.286  0.3474  0.0959 -0.6660
  484CHL    CL2 2599   4.112   2.896   3.436 -0.1772  0.1247 -0.3830
  484CHL      H 2600   4.297   2.740   3.463  1.0448 -2.9503 -0.8652
  485CHL     CL 2601   2.885   0.679   3.004 -0.1056  0.6183 -0.0145
  485CHL      C 2602   2.740   0.635   3.109 -0.0253  0.6196  0.3620
  485CHL    CL1 2603   2.624   0.770   3.105  0.1612 -0.1729 -0.1054
  485CHL    CL2 2604   2.665   0.474   3.060  0.3571 -0.3692 -0.2249
  485CHL      H 2605   2.776   0.623   3.212  0.6496 -0.3288  0.0283
  486CHL     CL 2606   0.350   0.937   2.371 -0.2121 -0.0311  0.0536
  486CHL      C 2607   0.428   0.831   2.491  0.7758 -0.0947 -0.0705
  486CHL    CL1 2608   0.350   0.672   2.510  0.0806 -0.1886 -0.0763
  486CHL    CL2 2609   0.594   0.801   2.443 -0.1045  0.1552  0.4697
  486CHL      H 2610   0.424   0.882   2.587  0.7430 -3.1390  1.6739
  487CHL     CL 2611   2.188   3.794   4.022 -0.5420  0.2931 -0.0894
  487CHL      C 2612   2.235   3.785   3.847  0.4609  0.1456  0.3872
  487CHL    CL1 2613   2.277   3.940   3.779  0.2487  0.4100  0.4030
  487CHL    CL2 2614   2.383   3.673   3.809  0.0934 -0.0851 -0.0156
  487CHL      H 2615   2.149   3.755   3.786  1.1319 -3.2779  0.9424
  488CHL     CL 2616   2.981   0.542   3.767 -0.3775 -0.6086 -0.2690
  488CHL      C 2617   2.870   0.446   3.875 -0.3716 -0.4002  0.1089
  488CHL    CL1 2618   2.709   0.527   3.889 -0.4703  0.0613  0.6647
  488CHL    CL2 2619   2.853   0.277   3.820 -0.1935 -0.1730  0.3915
  488CHL      H 2620   2.916   0.441   3.974  0.4622  2.7096 -0.0308
  489CHL     CL 2621   2.347   2.432   0.892  0.0874 -0.4235 -0.1364
  489CHL      C 2622   2.176   2.443   0.919  0.5763  0.6389 -0.1325
  489CHL    CL1 2623   2.070   2.365   0.793  0.1785  0.2021  0.1618
  489CHL    CL2 2624   2.134   2.376   1.077  0.3997  0.1912  0.5140
  489CHL      H 2625   2.148   2.549   0.916  1.0116  0.8143  1.2159
  490CHL     CL 2626   1.711   2.482   3.808  0.2694  0.4342 -0.2491
  490CHL      C 2627   1.720   2.347   3.695  0.0491  0.5644 -0.3784
  490CHL    CL1 2628   1.603   2.381   3.559 -0.2671  0.1101  0.3908
  490CHL    CL2 2629   1.881   2.326   3.613  0.1933 -0.0103  0.1409
  490CHL      H 2630   1.674   2.264   3.749  0.2674  0.5167 -0.2644
  491CHL     CL 2631   3.486   1.338   4.312 -0.0474  0.2548  0.1932
  491CHL      C 2632   3.378   1.337   4.172 -0.0925 -0.0837 -0.4337
  491CHL    CL1 2633   3.479   1.390   4.029 -0.2356 -0.1850 -0.1152
  491CHL    CL2 2634   3.327   1.164   4.127  0.1112  0.1409 -0.0697
  491CHL      H 2635   3.294   1.406   4.183  0.0925  0.4608 -2.0948
  492CHL     CL 2636   3.553   2.650   1.817  0.4272  0.2884  0.0583
  492CHL      C 2637   3.560   2.475   1.800  0.1720  0.1170  0.1399
  492CHL    CL1 2638   3.725   2.441   1.754  0.0115 -0.5187 -0.0168
  492CHL    CL2 2639   3.528   2.400   1.964  0.1352  0.2440  0.2851
  492CHL      H 2640   3.488   2.438   1.726 -0.7455  2.5585 -0.2822
  493CHL     CL 2641   3.720   2.332   3.207  0.1626 -0.1947 -0.0483
  493CHL      C 2642   3.730   2.449   3.345 -0.3693  0.3999  0.2247
  493CHL    CL1 2643   3.814   2.392   3.493  0.1617 -0.3139  0.1491
  493CHL    CL2 2644   3.819   2.592   3.296 -0.0228  0.2066  0.0643
  493CHL      H 2645   3.626   2.484   3.350 -0.9351 -1.1969  0.3243
  494CHL     CL 2646   1.723   3.550   0.464 -0.0413 -0.2528 -0.0921
  494CHL      C 2647   1.707   3.375   0.427 -0.0094 -0.2063  0.5096
  494CHL    CL1 2648   1.878   3.321   0.395  0.1351 -0.4755 -0.1623
  494CHL    CL2 2649   1.624   3.296   0.570  0.0077 -0.1580  0.1301
  494CHL      H 2650   1.658   3.368   0.329  0.4631 -2.1800  0.3741
  495CHL     CL 2651   1.220   0.653   0.516 -0.0569 -0.0154 -0.4442
  495CHL      C 2652   1.116   0.680   0.374 -0.7522 -0.3064 -0.5195
  495CHL    CL1 2653   1.194   0.803   0.262  0.3644 -0.3141 -0.0273
  495CHL    CL2 2654   1.091   0.527   0.293  0.3081  0.0033 -0.3752
  495CHL      H 2655   1.024   0.725   0.413  0.0481  1.6568 -0.7930
  496CHL     CL 2656   2.099   2.244   0.376  0.0230 -0.0613  0.3227
  496CHL      C 2657   2.009   2.243   0.215 -0.0166 -0.2188  0.4567
  496CHL    CL1 2658   2.124   2.220   0.068 -0.2563  0.3377 -0.1545
  496CHL    CL2 2659   1.905   2.095   0.215  0.5143 -0.0943 -0.2462
  496CHL      H 2660   1.942   2.329   0.224  0.1663 -0.2616  2.9110
  497CHL     CL 2661   0.213   1.301   2.743 -0.1310 -0.3119 -0.3990
  497CHL      C 2662   0.391   1.307   2.718 -0.2000  0.1385  0.3064
  497CHL    CL1 2663   0.485   1.297   2.870 -0.2832  0.1470  0.0546
  497CHL    CL2 2664   0.436   1.172   2.608  0.5073  0.0988  0.1139
  497CHL      H 2665   0.412   1.406   2.676 -0.7478  0.0418 -0.2003
  498CHL     CL 2666   4.195   1.129   1.074  0.5567  0.4036 -0.0301
  498CHL      C 2667   4.294   1.167   1.217  0.2342  0.7794 -0.0566
  498CHL    CL1 2668   4.194   1.277   1.333 -0.3248  0.2955 -0.0199
  498CHL    CL2 2669   4.313   1.024   1.307 -0.0150  0.0991  0.1611
  498CHL      H 2670   4.392   1.212   1.198  0.2532  0.9570  0.4527
  499CHL     CL 2671   4.276   2.377   1.160 -0.3439  0.5125 -0.1505
  499CHL      C 2672   4.271   2.455   0.994  0.1630  0.2362  0.3984
  499CHL    CL1 2673   4.375   2.599   0.973 -0.3093 -0.0077 -0.1849
  499CHL    CL2 2674   4.316   2.332   0.868  0.0575  0.0680 -0.2639
  499CHL      H 2675   4.166   2.484   0.981 -0.2170  0.0722  2.5955
  500CHL     CL 2676   1.887   0.137   3.213  0.2767  0.0340  0.2853
  500CHL      C 2677   1.761   0.226   3.301  0.1820 -0.3259 -0.5391
  500CHL    CL1 2678   1.663   0.094   3.379  0.0111 -0.1698 -0.0687
  500CHL    CL2 2679   1.820   0.339   3.431  0.2653 -0.3879  0.0662
  500CHL      H 2680   1.708   0.276   3.219  0.2441 -1.6389 -1.4036
  501CHL     CL 2681   2.603   4.362   0.557  0.3532  0.4879  0.1696
  501CHL      C 2682   2.577   4.402   0.725  0.6591 -0.4466 -0.5440
  501CHL    CL1 2683   2.564   4.263   0.822  0.1905  0.1057 -0.2856
  501CHL    CL2 2684   2.715   4.495   0.778  0.1562 -0.7246  0.0901
  501CHL      H 2685   2.485   4.460   0.731  0.6560 -0.4255 -0.8010
  502CHL     CL 2686   0.164   2.539   3.514  0.2982 -0.1046 -0.0763
  502CHL      C 2687   0.286   2.644   3.612  0.1263  0.4875 -0.4672
  502CHL    CL1 2688   0.419   2.713   3.511 -0.5757  0.3561 -0.3918
  502CHL    CL2 2689   0.207   2.784   3.697 -0.0406  0.4577 -0.6236
  502CHL      H 2690   0.332   2.575   3.683  3.0940  1.6623 -1.1347
  503CHL     CL 2691   0.117   0.867   2.645 -0.5341  0.7296  0.1772
  503CHL      C 2692   0.139   0.815   2.813 -0.0387 -0.8224 -0.6234
  503CHL    CL1 2693   0.193   0.643   2.827  0.2374  0.2604  0.1931
  503CHL    CL2 2694   0.255   0.940   2.886  0.0430  0.2525 -0.3411
  503CHL      H 2695   0.040   0.835   2.853 -0.2622 -0.7721 -1.1928
  504CHL     CL 2696   0.081   0.291   2.638  0.2350  0.1570 -0.1359
  504CHL      C 2697   0.222   0.214   2.555  0.2377  0.0903  0.7879
  504CHL    CL1 2698   0.375   0.261   2.646  0.2806  0.4834 -0.3880
  504CHL    CL2 2699   0.237   0.272   2.384  0.2118  0.4333  0.0523
  504CHL      H 2700   0.209   0.105   2.552 -0.7318  0.2046  0.4875
  505CHL     CL 2701   0.168   3.426   2.895  0.0262  0.2882  0.3883
  505CHL      C 2702   0.193   3.343   2.731 -0.4837 -0.2120  0.3214
  505CHL    CL1 2703   0.175   3.471   2.606 -0.0512  0.5906 -0.2950
  505CHL    CL2 2704   0.358   3.275   2.710 -0.0227  0.0816 -0.0642
  505CHL      H 2705   0.112   3.271   2.711 -0.1225 -0.5263 -0.0396
  506CHL     CL 2706   0.063   4.146   1.786  0.1327  0.0813  0.1770
  506CHL      C 2707  -0.048   4.247   1.885  0.2710  0.2948  0.4282
  506CHL    CL1 2708   0.037   4.313   2.026  0.2753 -0.3237  0.0732
  506CHL    CL2 2709  -0.134   4.377   1.782  0.3375  0.3597 -0.6924
  506CHL      H 2710  -0.135   4.192   1.923 -1.3239  0.1632 -3.0198
  507CHL     CL 2711   1.171   3.596   1.868 -0.2793  0.4057  0.0042
  507CHL      C 2712   1.151   3.731   1.989 -0.7386  0.0652 -0.0341
  507CHL    CL1 2713   1.300   3.751   2.085  0.3039 -0.1326  0.0659
  507CHL    CL2 2714   1.086   3.883   1.913  0.0902  0.1748 -0.0964
  507CHL      H 2715   1.075   3.713   2.066 -1.9456  1.8300 -0.7445
  508CHL     CL 2716   2.668   0.053   2.999 -0.2381  0.3314  0.1763
  508CHL      C 2717   2.838   0.051   2.966  0.7377 -0.2271 -0.5930
  508CHL    CL1 2718   2.930   0.152   3.083 -0.0632 -0.2186 -0.2955
  508CHL    CL2 2719   2.913  -0.119   2.978 -0.3417  0.1732 -0.2060
  508CHL      H 2720   2.851   0.103   2.870  0.3531  1.2170  0.1040
  509CHL     CL 2721   3.786   1.162   0.247  0.6056  0.6779 -0.2784
  509CHL      C 2722   3.963   1.182   0.261 -0.5808 -0.3109  0.0104
  509CHL    CL1 2723   4.045   1.115   0.115  0.2548  0.1084 -0.1234
  509CHL    CL2 2724   4.004   1.348   0.299  0.4002  0.0910  0.0047
  509CHL      H 2725   4.003   1.119   0.341  2.8816  1.4923 -0.1078
  510CHL     CL 2726   0.590   0.822   0.166  0.0246  0.0881 -0.0465
  510CHL      C 2727   0.425   0.768   0.114  0.0767  0.5323  0.3670
  510CHL    CL1 2728   0.320   0.905   0.103  0.0183 -0.3199  0.2496
  510CHL    CL2 2729   0.435   0.707  -0.054 -0.1928 -0.6599  0.2832
  510CHL      H 2730   0.380   0.687   0.172  1.1828  0.2357  0.8524
  511CHL     CL 2731   2.163   1.922   3.135  0.2418  0.2865  0.2594
  511CHL      C 2732   2.300   1.833   3.068 -0.1776  0.0772 -0.0608
  511CHL    CL1 2733   2.416   1.959   3.021 -0.0285  0.3816 -0.1978
  511CHL    CL2 2734   2.382   1.719   3.185  0.2986  0.2380  0.1256
  511CHL      H 2735   2.271   1.773   2.982  1.3270 -2.8868  1.3377
  512CHL     CL 2736   3.868   0.180   1.001  0.0270  0.3139 -0.0523
  512CHL      C 2737   3.704   0.180   0.924  0.3419  0.0097  0.1636
  512CHL    CL1 2738   3.616   0.323   0.983 -0.0305 -0.1472  0.3245
  512CHL    CL2 2739   3.718   0.187   0.742  0.0251 -0.0699 -0.3003
  512CHL      H 2740   3.651   0.087   0.947 -2.4427  0.4900 -3.4158
  513CHL     CL 2741   0.841   2.495   2.626  0.2878 -0.4611 -0.4650
  513CHL      C 2742   0.667   2.452   2.587 -0.1398 -0.4285 -0.1358
  513CHL    CL1 2743   0.668   2.343   2.449  0.0265 -0.1079  0.0359
  513CHL    CL2 2744   0.585   2.377   2.727  0.0239 -0.0939 -0.4676
  513CHL      H 2745   0.612   2.541   2.554 -0.4132 -1.1824 -1.8100
  514CHL     CL 2746   2.276   2.270   3.049 -0.1404 -0.1293 -0.1964
  514CHL      C 2747   2.442   2.321   3.054  0.4073 -0.2915  0.1900
  514CHL    CL1 2748   2.482   2.429   2.916 -0.0768  0.3534 -0.6581
  514CHL    CL2 2749   2.480   2.420   3.197  0.3020 -0.2293 -0.0600
  514CHL      H 2750   2.500   2.228   3.053 -1.4954 -1.5357  0.6764
  515CHL     CL 2751   1.663   2.000   2.636  0.2227 -0.1130 -0.0574
  515CHL      C 2752   1.828   1.968   2.713  0.2258 -1.3107  0.2678
  515CHL    CL1 2753   1.958   2.038   2.617 -0.4678 -0.1653  0.0979
  515CHL    CL2 2754   1.812   2.045   2.875 -0.1519  0.1942  0.2906
  515CHL      H 2755   1.839   1.859   2.718  0.5996 -1.3130 -0.4669
  516CHL     CL 2756   1.319   0.868   2.850 -0.0714 -0.3084  0.0601
  516CHL      C 2757   1.256   0.702   2.834  0.7038 -0.7604  0.0368
  516CHL    CL1 2758   1.286   0.618   2.991  0.2866  0.2421 -0.0370
  516CHL    CL2 2759   1.073   0.705   2.814 -0.0116  0.3588 -0.2849
  516CHL      H 2760   1.289   0.643   2.749 -2.7945 -3.0570  0.0525
  517CHL     CL 2761   0.085   3.030   4.308 -0.2150  0.2178  0.0319
  517CHL      C 2762   0.063   2.982   4.139  0.6561  0.5126  0.2877
  517CHL    CL1 2763  -0.101   3.049   4.089  0.4740 -0.1449 -0.2179
  517CHL    CL2 2764   0.202   3.032   4.028 -0.3213  0.1700  0.1348
  517CHL      H 2765   0.055   2.873   4.127 -1.2911  0.8323 -2.0066
  518CHL     CL 2766   3.705   0.294   0.009  0.1032 -0.3654 -0.1234
  518CHL      C 2767   3.633   0.467  -0.020 -0.3879  0.5163 -0.3708
  518CHL    CL1 2768   3.488   0.422  -0.113  0.1511 -0.1409  0.3640
  518CHL    CL2 2769   3.597   0.548   0.130  0.2561  0.1688 -0.0232
  518CHL      H 2770   3.707   0.513  -0.087  0.0607  0.2991 -0.0312
  519CHL     CL 2771   3.147   1.349   2.929 -0.1894  0.2657 -0.4445
  519CHL      C 2772   3.317   1.404   2.951  0.5332  0.3729 -0.3112
  519CHL    CL1 2773   3.415   1.262   3.013  0.0793 -0.3659  0.0780
  519CHL    CL2 2774   3.390   1.459   2.801  0.1845  0.2665 -0.0331
  519CHL      H 2775   3.315   1.483   3.027  1.6621  0.5031 -0.3903
  520CHL     CL 2776   2.401   1.673   2.262 -0.0609 -0.1056 -0.2567
  520CHL      C 2777   2.328   1.553   2.151 -0.0449  0.1203  0.2910
  520CHL    CL1 2778   2.195   1.621   2.056  0.0456  0.0652 -0.5355
  520CHL    CL2 2779   2.456   1.485   2.046  0.2112 -0.0424  0.0544
  520CHL      H 2780   2.295   1.474   2.220  0.9016 -0.1166  0.4820
  521CHL     CL 2781   2.059   4.120   1.488 -0.2170 -0.1504  0.0265
  521CHL      C 2782   1.909   4.027   1.418  0.0127  0.1377  0.0734
  521CHL    CL1 2783   1.963   3.851   1.376 -0.2811  0.3873  0.4220
  521CHL    CL2 2784   1.763   4.021   1.516  0.2865  0.0232 -0.1077
  521CHL      H 2785   1.874   4.064   1.321  1.1006 -2.0013 -1.2153
  522CHL     CL 2786   3.236   2.711   3.225 -0.0718 -0.0220 -0.4155
  522CHL      C 2787   3.322   2.552   3.199 -0.2843 -0.2866  0.0122
  522CHL    CL1 2788   3.467   2.590   3.096 -0.1093 -0.3222 -0.2028
  522CHL    CL2 2789   3.378   2.460   3.345  0.4966 -0.2743  0.0708
  522CHL      H 2790   3.261   2.487   3.135 -0.5553  0.7590 -0.8251
  523CHL     CL 2791   1.441   0.797   0.759 -0.1211  0.0791  0.1558
  523CHL      C 2792   1.602   0.725   0.783 -0.9789 -0.2588  0.7804
  523CHL    CL1 2793   1.605   0.574   0.863  0.2128 -0.5676  0.3584
  523CHL    CL2 2794   1.686   0.699   0.625  0.2053  0.4073  0.0010
  523CHL      H 2795   1.668   0.793   0.837  1.1320 -2.6860  1.4052
  524CHL     CL 2796   0.372   0.305   2.993 -0.0862 -0.1460 -0.0466
  524CHL      C 2797   0.491   0.186   2.997  0.0074 -0.2475 -0.2605
  524CHL    CL1 2798   0.629   0.232   3.098  0.0006  0.0859  0.0723
  524CHL    CL2 2799   0.424   0.029   3.046  0.4367 -0.1232  0.3904
  524CHL      H 2800   0.537   0.184   2.898  1.7139 -0.7032  0.5137
  525CHL     CL 2801   4.076   2.341   3.129 -0.0608 -0.3879  0.0231
  525CHL      C 2802   4.200   2.268   3.026  1.0323  0.0098 -0.2101
  525CHL    CL1 2803   4.349   2.190   3.105 -0.0089  0.0767 -0.2558
  525CHL    CL2 2804   4.123   2.142   2.932 -0.0152  0.1389  0.1679
  525CHL      H 2805   4.226   2.349   2.957 -1.1092  0.2775 -0.7513
  526CHL     CL 2806   0.444   0.038   1.705 -0.1311 -0.0055 -0.3111
  526CHL      C 2807   0.265   0.060   1.691 -0.2176  0.4272  0.4028
  526CHL    CL1 2808   0.228   0.218   1.748  0.1643  0.1812 -0.1791
  526CHL    CL2 2809   0.218   0.067   1.517 -0.0708  0.4920  0.2401
  526CHL      H 2810   0.206  -0.008   1.753  1.2548  0.4536  1.9161
  527CHL     CL 2811   4.044   2.589   2.547 -0.1858  0.1702  0.2115
  527CHL      C 2812   4.158   2.446   2.518  0.1372 -0.1893 -0.7129
  527CHL    CL1 2813   4.235   2.497   2.366 -0.1580 -0.2949  0.0377
  527CHL    CL2 2814   4.279   2.432   2.640  0.4849  0.0998  0.3374
  527CHL      H 2815   4.105   2.351   2.507 -0.7807 -0.0186  1.7284
  528CHL     CL 2816   3.669   2.839   0.270 -0.0105  0.3754 -0.1075
  528CHL      C 2817   3.759   2.995   0.223 -0.4064  0.2982 -0.3408
  528CHL    CL1 2818   3.935   2.979   0.257 -0.2915  0.6465  0.6665
  528CHL    CL2 2819   3.735   3.045   0.055 -0.1838  0.4096 -0.3223
  528CHL      H 2820   3.726   3.067   0.298 -2.0038 -1.9657  1.2830
  529CHL     CL 2821   0.451   3.690   1.532 -0.1633 -0.0834  0.1234
  529CHL      C 2822   0.587   3.707   1.417  0.3579  0.4415 -0.0488
  529CHL    CL1 2823   0.600   3.566   1.309 -0.3860 -0.3046 -0.1377
  529CHL    CL2 2824   0.557   3.853   1.316 -0.2679  0.0280 -0.0886
  529CHL      H 2825   0.677   3.727   1.477  0.7676 -1.7728  0.1493
  530CHL     CL 2826   3.797   3.406   1.515  0.0224 -0.0529 -0.1551
  530CHL      C 2827   3.684   3.270   1.564  0.4208  0.1659 -0.4274
  530CHL    CL1 2828   3.551   3.256   1.446  0.0053  0.1862 -0.0727
  530CHL    CL2 2829   3.780   3.122   1.580  0.4782  0.2780 -0.3003
  530CHL      H 2830   3.632   3.291   1.658 -0.6909 -0.5487 -0.8563
  531CHL     CL 2831   3.138   2.717   0.069  0.3767  0.2198  0.1420
  531CHL      C 2832   3.190   2.892   0.099 -0.3979  0.5702  0.4726
  531CHL    CL1 2833   3.365   2.928   0.064  0.3324  0.0230 -0.1350
  531CHL    CL2 2834   3.102   3.010   0.006  0.1963  0.0453  0.3927
  531CHL      H 2835   3.179   2.915   0.205  0.2415  1.6217  0.3238
  532CHL     CL 2836   0.968   2.181   3.930  0.2776  0.5275 -0.2234
  532CHL      C 2837   0.887   2.022   3.955  0.7270  0.8590 -0.8583
  532CHL    CL1 2838   0.948   1.948   4.107  0.0816 -0.1493 -0.3529
  532CHL    CL2 2839   0.713   2.046   3.964  0.0651 -0.1213 -0.0337
  532CHL      H 2840   0.910   1.957   3.870  0.7116  0.7844 -0.8054
  533CHL     CL 2841   0.249   1.110   0.976  0.3075 -0.1140 -0.2923
  533CHL      C 2842   0.412   1.193   1.031 -0.2042  0.5020  0.7739
  533CHL    CL1 2843   0.375   1.283   1.183  0.1811 -0.0051  0.0458
  533CHL    CL2 2844   0.540   1.073   1.059  0.1131 -0.0562  0.4547
  533CHL      H 2845   0.429   1.266   0.951 -0.7117  0.5654  0.7221
  534CHL     CL 2846   1.392   3.437   2.256 -0.1432  0.1865 -0.0011
  534CHL      C 2847   1.235   3.403   2.330  0.9866 -0.2890  0.0674
  534CHL    CL1 2848   1.211   3.508   2.479 -0.1289  0.0580 -0.0817
  534CHL    CL2 2849   1.117   3.464   2.203  0.0675  0.1157 -0.1365
  534CHL      H 2850   1.230   3.296   2.351  1.5375 -0.2954  0.1879
  535CHL     CL 2851   2.784   2.724   0.507 -0.4096 -0.0909  0.0464
  535CHL      C 2852   2.725   2.798   0.355 -0.0797 -0.3775 -0.1405
  535CHL    CL1 2853   2.594   2.920   0.383  0.0199 -0.0786  0.3829
  535CHL    CL2 2854   2.857   2.884   0.268  0.1125 -0.2057 -0.1134
  535CHL      H 2855   2.694   2.715   0.290  0.5577 -1.1869  0.5674
  536CHL     CL 2856   3.650   1.483   0.248 -0.0904  0.2674  0.2406
  536CHL      C 2857   3.537   1.617   0.267  0.4533  0.3476 -0.3636
  536CHL    CL1 2858   3.595   1.775   0.209  0.2530  0.1748  0.7344
  536CHL    CL2 2859   3.367   1.572   0.204 -0.1962 -0.4097 -0.3739
  536CHL      H 2860   3.523   1.626   0.375  1.9717  2.0283 -0.2635
  537CHL     CL 2861   3.698   1.196   0.918  0.0018 -0.0409  0.0042
  537CHL      C 2862   3.876   1.220   0.921  0.1858  0.4695 -0.1795
  537CHL    CL1 2863   3.950   1.191   0.762  0.1262 -0.0338 -0.0157
  537CHL    CL2 2864   3.914   1.391   0.966 -0.0307  0.2861 -0.6405
  537CHL      H 2865   3.921   1.158   0.999  2.2903  1.2721 -0.6813
  538CHL     CL 2866   0.859   4.116   1.677  0.1670 -0.0253 -0.2020
  538CHL      C 2867   0.707   4.081   1.766  0.0987  0.1595 -0.9612
  538CHL    CL1 2868   0.579   4.034   1.654  0.1876 -0.3167 -0.3361
  538CHL    CL2 2869   0.748   3.959   1.895  0.5637 -0.1835  0.0781
  538CHL      H 2870   0.680   4.176   1.812  0.8244  1.3561 -2.8750
  539CHL     CL 2871   0.530   3.329   0.926 -0.3281  0.2765 -0.0262
  539CHL      C 2872   0.368   3.268   0.896 -1.0708 -0.0171 -0.1799
  539CHL    CL1 2873   0.284   3.377   0.795 -0.4073 -0.1304  0.1245
  539CHL    CL2 2874   0.378   3.110   0.818 -0.0082  0.1347  0.2182
  539CHL      H 2875   0.307   3.246   0.985 -0.9479 -4.3108 -0.9347
  540CHL     CL 2876   2.389   1.431   3.652  0.1630 -0.3880  0.1157
  540CHL      C 2877   2.213   1.396   3.664 -0.0321  0.6492 -0.5464
  540CHL    CL1 2878   2.122   1.546   3.722  0.0248  0.1215 -0.4470
  540CHL    CL2 2879   2.141   1.349   3.506 -0.3922  0.2737 -0.5144
  540CHL      H 2880   2.202   1.305   3.725 -1.0171  0.5787 -0.8042
  541CHL     CL 2881   0.241   2.125   3.812  0.3365  0.5248 -0.3525
  541CHL      C 2882   0.365   2.241   3.862  0.4694 -0.5001 -0.1042
  541CHL    CL1 2883   0.516   2.228   3.776  0.2769 -0.1611  0.0712
  541CHL    CL2 2884   0.302   2.407   3.863  0.1644  0.0779  0.0712
  541CHL      H 2885   0.387   2.210   3.965  0.3897  0.4156  0.2015
  542CHL     CL 2886   1.258   0.369   3.923 -0.0987 -0.0499 -0.1619
  542CHL      C 2887   1.135   0.500   3.950  0.0282  0.0412 -0.2888
  542CHL    CL1 2888   1.125   0.613   3.813  0.0442  0.1715 -0.1291
  542CHL    CL2 2889   0.980   0.413   3.975  0.0355  0.0712  0.1662
  542CHL      H 2890   1.140   0.542   4.051  1.6714  2.5433 -1.3180
  543CHL     CL 2891   4.349   0.967   3.693 -0.1481 -0.2685  0.3690
  543CHL      C 2892   4.393   0.972   3.861  0.1553 -0.2460 -0.1606
  543CHL    CL1 2893   4.543   1.084   3.894  0.0825  0.2128  0.0114
  543CHL    CL2 2894   4.249   1.007   3.971 -0.0927  0.3137 -0.3485
  543CHL      H 2895   4.423   0.870   3.891 -2.0016 -0.6019  1.0333
  544CHL     CL 2896   1.172   0.359   1.738  0.4522 -0.3545 -0.3930
  544CHL      C 2897   1.005   0.427   1.734 -0.8339 -0.2702  0.4713
  544CHL    CL1 2898   0.930   0.440   1.570  0.1573  0.4448  0.0099
  544CHL    CL2 2899   0.900   0.342   1.845 -0.2913 -0.2002  0.0540
  544CHL      H 2900   1.019   0.531   1.765 -0.1720  0.0907 -0.9475
  545CHL     CL 2901   4.041   1.000   1.586  0.3127  0.1040 -0.3320
  545CHL      C 2902   4.026   0.851   1.475  0.7799  0.1333  0.1529
  545CHL    CL1 2903   4.156   0.723   1.505 -0.1063 -0.3391  0.4094
  545CHL    CL2 2904   3.859   0.777   1.494  0.1610  0.1338  0.1968
  545CHL      H 2905   4.032   0.892   1.374 -0.4137  2.3801  0.9232
  546CHL     CL 2906   0.810   1.144   3.422 -0.1279  0.1501 -0.1525
  546CHL      C 2907   0.669   1.108   3.300 -0.5357 -0.3014  0.7859
  546CHL    CL1 2908   0.602   1.248   3.230 -0.0831  0.3053  0.2651
  546CHL    CL2 2909   0.723   0.992   3.169 -0.1264  0.1869 -0.4549
  546CHL      H 2910   0.595   1.050   3.357  1.2741 -3.3958  0.2017
  547CHL     CL 2911   4.134   0.188   4.186  0.6502 -0.0432  0.1752
  547CHL      C 2912   4.200   0.285   4.053 -0.3128  0.6382  0.1201
  547CHL    CL1 2913   4.297   0.425   4.110  0.2510  0.0111 -0.3257
  547CHL    CL2 2914   4.299   0.177   3.952 -0.2784 -0.6669  0.3633
  547CHL      H 2915   4.111   0.322   4.001  0.0705  1.0305 -0.2653
  548CHL     CL 2916   1.069   1.424   3.276 -0.1442 -0.1525  0.2174
  548CHL      C 2917   1.232   1.463   3.343  0.4642  0.0486 -0.1053
  548CHL    CL1 2918   1.343   1.330   3.313 -0.0452  0.0303 -0.0221
  548CHL    CL2 2919   1.298   1.615   3.272  0.0322 -0.0517 -0.0017
  548CHL      H 2920   1.236   1.459   3.452  1.3548  1.0270 -0.0878
  549CHL     CL 2921   0.560   3.686   0.974 -0.3740  0.2351  0.0718
  549CHL      C 2922   0.441   3.773   0.866 -0.1702  0.3608 -0.2218
  549CHL    CL1 2923   0.268   3.705   0.890 -0.2774 -0.4556  0.0064
  549CHL    CL2 2924   0.424   3.951   0.909 -0.0598 -0.0757  0.3825
  549CHL      H 2925   0.465   3.754   0.761  0.5963  0.0057  0.0113
  550CHL     CL 2926   1.861   4.014   3.557  0.0656 -0.1050 -0.1464
  550CHL      C 2927   1.952   4.128   3.457 -0.6410  0.2165 -0.5217
  550CHL    CL1 2928   2.084   4.204   3.555  0.0130  0.0941  0.5376
  550CHL    CL2 2929   2.027   4.036   3.319 -0.2351  0.5637 -0.1472
  550CHL      H 2930   1.889   4.206   3.414  1.5649  2.0174 -0.6365
  551CHL     CL 2931   0.337   1.580   0.863  0.1376  0.2228 -0.3180
  551CHL      C 2932   0.405   1.548   0.690 -0.9332 -0.7587  0.3422
  551CHL    CL1 2933   0.473   1.710   0.635 -0.0899 -0.0180  0.4777
  551CHL    CL2 2934   0.548   1.432   0.692 -0.0425  0.1278 -0.2583
  551CHL      H 2935   0.329   1.505   0.623  0.5232 -2.6849 -0.1604
  552CHL     CL 2936   2.349   2.672   1.169 -0.0040  0.1586 -0.1537
  552CHL      C 2937   2.358   2.845   1.214 -0.4064  0.1946  0.7817
  552CHL    CL1 2938   2.254   2.892   1.359 -0.0040  0.0823  0.9152
  552CHL    CL2 2939   2.523   2.899   1.240 -0.0074  0.4496 -0.1047
  552CHL      H 2940   2.315   2.897   1.128  0.7080 -0.2500 -0.0723
  553CHL     CL 2941   3.344   3.546   4.214  0.0979 -0.2666 -0.2794
  553CHL      C 2942   3.490   3.573   4.112 -0.2616  0.4068 -0.1390
  553CHL    CL1 2943   3.592   3.697   4.184  0.3133 -0.6555 -0.6778
  553CHL    CL2 2944   3.583   3.423   4.079  0.3931 -0.1387 -0.0404
  553CHL      H 2945   3.446   3.609   4.018 -0.0728 -1.1901 -0.8775
  554CHL     CL 2946   2.468   2.799   3.741  0.1381 -0.2798  0.2580
  554CHL      C 2947   2.377   2.655   3.786  0.3105  0.3254 -0.6240
  554CHL    CL1 2948   2.200   2.693   3.826  0.2914  0.2820 -0.3402
  554CHL    CL2 2949   2.370   2.554   3.636  0.2675  0.0084 -0.1827
  554CHL      H 2950   2.423   2.600   3.868 -1.7147  1.0969  1.1361
  555CHL     CL 2951   0.995   3.670   1.210 -0.1852  0.1056  0.1007
  555CHL      C 2952   0.923   3.529   1.131 -0.5295  0.4653 -0.0088
  555CHL    CL1 2953   0.997   3.500   0.977 -0.0765 -0.2115 -0.3119
  555CHL    CL2 2954   0.930   3.391   1.249  0.1960  0.1049  0.0704
  555CHL      H 2955   0.816   3.552   1.124 -0.0876  2.3081 -1.5673
  556CHL     CL 2956   1.803   1.327   3.032  0.1295 -0.2416  0.1761
  556CHL      C 2957   1.737   1.297   3.190  0.3567 -0.5049 -0.0553
  556CHL    CL1 2958   1.645   1.145   3.166  0.1185  0.3480  0.0105
  556CHL    CL2 2959   1.884   1.262   3.287 -0.0844 -0.0610 -0.0288
  556CHL      H 2960   1.679   1.381   3.228 -1.1430 -0.5048 -2.1308
  557CHL     CL 2961   2.219   3.704   0.081  0.3075  0.0344  0.1292
  557CHL      C 2962   2.172   3.565   0.175  0.1827 -1.2843 -0.0599
  557CHL    CL1 2963   2.047   3.618   0.281 -0.2845 -0.1880  0.0974
  557CHL    CL2 2964   2.115   3.438   0.063 -0.1980  0.3113 -0.3047
  557CHL      H 2965   2.255   3.529   0.237 -0.5047  0.2484  1.8401
  558CHL     CL 2966   3.988   1.956   4.065  0.1812  0.6386 -0.1400
  558CHL      C 2967   4.065   1.940   3.902 -0.4264  0.9191  0.0611
  558CHL    CL1 2968   3.941   1.999   3.782 -0.0217 -0.3715 -0.7003
  558CHL    CL2 2969   4.229   2.014   3.887 -0.1588  0.0507 -0.3404
  558CHL      H 2970   4.084   1.834   3.883 -0.3698  1.0472 -0.6293
  559CHL     CL 2971   4.232   0.547   0.312 -0.4087 -0.1293 -0.1366
  559CHL      C 2972   4.126   0.416   0.258 -0.2913 -0.1668 -0.0711
  559CHL    CL1 2973   3.988   0.411   0.371  0.2737 -0.3210 -0.1337
  559CHL    CL2 2974   4.067   0.433   0.092  0.2446 -0.1146 -0.3532
  559CHL      H 2975   4.179   0.320   0.266 -2.4989 -1.6509 -1.9003
  560CHL     CL 2976   3.570   3.388   0.110  0.1068  0.1958  0.2839
  560CHL      C 2977   3.472   3.336   0.242 -0.0303  0.5804  0.4862
  560CHL    CL1 2978   3.321   3.265   0.196 -0.2192  0.0363  0.1458
  560CHL    CL2 2979   3.561   3.222   0.342  0.5628 -0.0640 -0.2229
  560CHL      H 2980   3.447   3.419   0.309 -2.0893 -0.8941  1.6405
  561CHL     CL 2981   0.572   0.770   2.817 -0.5713  0.0067 -0.5624
  561CHL      C 2982   0.644   0.702   2.977 -0.0308  0.1117  0.0650
  561CHL    CL1 2983   0.516   0.604   3.070  0.0185  0.1524  0.0383
  561CHL    CL2 2984   0.771   0.580   2.928  0.5137  0.2281  0.4298
  561CHL      H 2985   0.688   0.787   3.031  2.0334  0.7404 -2.3961
  562CHL     CL 2986   3.631   0.457   3.816 -0.2184  0.0028 -0.4338
  562CHL      C 2987   3.746   0.456   3.679 -0.1441  0.4419  0.4626
  562CHL    CL1 2988   3.889   0.340   3.714  0.2212 -0.2636  0.0862
  562CHL    CL2 2989   3.676   0.399   3.529 -0.0073  0.4870  0.1484
  562CHL      H 2990   3.779   0.560   3.668  0.1543  0.3801  0.7639
  563CHL     CL 2991   4.020   2.991   3.801  0.2600  0.1005  0.1372
  563CHL      C 2992   3.980   3.157   3.847 -0.8777  0.4960 -0.0309
  563CHL    CL1 2993   4.146   3.245   3.854  0.0416  0.3237 -0.0593
  563CHL    CL2 2994   3.867   3.231   3.728 -0.0854 -0.2510  0.1329
  563CHL      H 2995   3.937   3.154   3.947 -1.5931  1.2969 -0.3053
  564CHL     CL 2996   0.854   3.339   3.079  0.1979  0.2650 -0.0722
  564CHL      C 2997   0.975   3.238   2.993 -0.2733  0.0225  0.5232
  564CHL    CL1 2998   0.961   3.271   2.814 -0.0810 -0.2481 -0.0985
  564CHL    CL2 2999   1.140   3.270   3.053  0.2033 -0.1958 -0.3369
  564CHL      H 3000   0.946   3.133   3.009  2.2302 -0.5834  1.5217
  565CHL     CL 3001   4.234   1.324   3.582  0.6268  0.0539 -0.1721
  565CHL      C 3002   4.340   1.465   3.614  0.1474  0.5514 -0.7163
  565CHL    CL1 3003   4.391   1.448   3.793 -0.0698  0.0256  0.2630
  565CHL    CL2 3004   4.257   1.621   3.605 -0.0703  0.0453  0.4543
  565CHL      H 3005   4.434   1.473   3.558  0.5355  1.1680 -0.0034
  566CHL     CL 3006   2.869   1.560   1.662  0.0032  0.0658 -0.3904
  566CHL      C 3007   2.866   1.622   1.825 -0.3946 -0.3905  0.0706
  566CHL    CL1 3008   2.948   1.781   1.813 -0.2062  0.2040 -0.0085
  566CHL    CL2 3009   2.691   1.672   1.872  0.4710  0.2433 -0.0182
  566CHL      H 3010   2.914   1.552   1.894 -0.4767 -0.1850  0.3362
  567CHL     CL 3011   2.875   4.271   1.332 -0.0947 -0.7466  0.1364
  567CHL      C 3012   3.008   4.168   1.251 -0.5907  0.4735  0.0577
  567CHL    CL1 3013   2.968   3.993   1.254 -0.4147 -0.0505 -0.1805
  567CHL    CL2 3014   3.023   4.211   1.070 -0.3576 -0.1955  0.0111
  567CHL      H 3015   3.102   4.189   1.303 -1.1778  1.3731  0.7856
  568CHL     CL 3016   2.428   3.636   2.931 -0.1605 -0.2639 -0.0190
  568CHL      C 3017   2.317   3.615   3.073 -0.2534  0.3204 -0.0160
  568CHL    CL1 3018   2.187   3.746   3.081  0.3104 -0.0175 -0.3139
  568CHL    CL2 3019   2.251   3.449   3.055  0.4376 -0.0479 -0.3478
  568CHL      H 3020   2.378   3.612   3.164 -0.5612  1.7585  0.2499
  569CHL     CL 3021   0.958   2.619   1.005 -0.1091 -0.3886  0.2100
  569CHL      C 3022   0.996   2.442   0.972 -0.2955  0.2405 -0.4337
  569CHL    CL1 3023   0.992   2.417   0.796 -0.2097 -0.3400 -0.1967
  569CHL    CL2 3024   1.149   2.384   1.035 -0.1420 -0.2343  0.1883
  569CHL      H 3025   0.921   2.387   1.031 -1.6392  2.8421  0.4326
  570CHL     CL 3026   2.057   1.994   0.736  0.3721 -0.0301  0.1776
  570CHL      C 3027   1.879   1.996   0.782 -0.1198 -0.0646  0.1368
  570CHL    CL1 3028   1.803   1.836   0.761 -0.3919 -0.4104  0.0181
  570CHL    CL2 3029   1.847   2.068   0.935  0.0870 -0.2016  0.1461
  570CHL      H 3030   1.825   2.066   0.717  1.1377  0.9776  0.1852
  571CHL     CL 3031   2.830   3.163   1.485 -0.2889 -0.0051  0.3904
  571CHL      C 3032   2.744   3.250   1.345 -0.3483 -0.3136  0.4713
  571CHL    CL1 3033   2.823   3.405   1.306  0.0486 -0.0861 -0.2527
  571CHL    CL2 3034   2.739   3.156   1.186  0.3504  0.1378 -0.0834
  571CHL      H 3035   2.645   3.278   1.382 -0.5588  0.5476 -0.6695
  572CHL     CL 3036   1.605   2.186   1.345  0.1213  0.4159  0.3456
  572CHL      C 3037   1.465   2.111   1.424  0.1952 -0.5497  0.9952
  572CHL    CL1 3038   1.481   2.123   1.605 -0.1173  0.2254 -0.2082
  572CHL    CL2 3039   1.326   2.208   1.372  0.0948 -0.1907  0.1386
  572CHL      H 3040   1.458   2.007   1.390  2.0082 -1.2680  2.5954
  573CHL     CL 3041   0.711   2.057   0.960 -0.0638  0.0958 -0.2455
  573CHL      C 3042   0.604   1.921   0.941 -0.0190  0.6531 -0.0031
  573CHL    CL1 3043   0.687   1.764   0.985 -0.3977  0.1989  0.4269
  573CHL    CL2 3044   0.458   1.953   1.044 -0.1127  0.2547  0.2321
  573CHL      H 3045   0.569   1.912   0.837 -0.7299  0.5159  0.2419
  574CHL     CL 3046   1.384   3.873   1.658 -0.1517  0.0287  0.1085
  574CHL      C 3047   1.237   3.941   1.581  0.1769 -0.9104  0.2561
  574CHL    CL1 3048   1.270   3.984   1.415 -0.1027  0.0712 -0.4757
  574CHL    CL2 3049   1.089   3.823   1.588 -0.0736  0.2285 -0.0021
  574CHL      H 3050   1.211   4.036   1.629  0.1431 -0.0331 -1.4461
  575CHL     CL 3051   2.993   3.155   1.786 -0.0878  0.4618 -0.0351
  575CHL      C 3052   2.973   3.062   1.939 -0.1590 -0.6001  0.5093
  575CHL    CL1 3053   3.096   2.927   1.938 -0.0749  0.1192 -0.3459
  575CHL    CL2 3054   3.029   3.164   2.073 -0.4600  0.1748 -0.5042
  575CHL      H 3055   2.872   3.025   1.960 -0.0170 -1.2543  0.0902
  576CHL     CL 3056   2.012   1.975   1.924  0.2500 -0.0906 -0.2147
  576CHL      C 3057   1.948   1.887   1.778 -0.1720  0.6125  0.3121
  576CHL    CL1 3058   1.810   1.982   1.706 -0.5242 -0.2383  0.1214
  576CHL    CL2 3059   2.088   1.862   1.664 -0.2678  0.5654  0.0240
  576CHL      H 3060   1.899   1.796   1.815 -1.5213  0.1655 -2.3020
  577CHL     CL 3061   3.953   0.465   4.133 -0.1891  0.1367  0.1013
  577CHL      C 3062   3.940   0.642   4.108 -0.4486 -0.0145  0.3317
  577CHL    CL1 3063   4.077   0.715   4.018 -0.3522 -0.1046 -0.0518
  577CHL    CL2 3064   3.790   0.662   4.017 -0.1535 -0.3260 -0.4848
  577CHL      H 3065   3.932   0.698   4.202  1.7405 -0.2779  0.7263
  578CHL     CL 3066   3.195   3.362   2.477  0.7790 -0.1130  0.0426
  578CHL      C 3067   3.223   3.538   2.444 -0.0782  0.0630 -0.2277
  578CHL    CL1 3068   3.280   3.557   2.271 -0.0102 -0.4946 -0.2919
  578CHL    CL2 3069   3.078   3.637   2.479  0.2873 -0.3286  0.0022
  578CHL      H 3070   3.302   3.570   2.513 -0.4538  0.4084  0.0457
  579CHL     CL 3071   2.832   2.313   1.295 -0.0410 -0.4040 -0.1904
  579CHL      C 3072   2.748   2.243   1.432  0.4318  0.1772  0.2858
  579CHL    CL1 3073   2.848   2.132   1.528 -0.0699  0.4306  0.0084
  579CHL    CL2 3074   2.681   2.364   1.535 -0.2816  0.0169  0.3676
  579CHL      H 3075   2.663   2.184   1.393 -0.1061 -0.1099  1.8372
  580CHL     CL 3076   3.740   3.514   2.815 -0.1240 -0.3096  0.0525
  580CHL      C 3077   3.751   3.388   2.686 -0.3128 -0.4182  0.1580
  580CHL    CL1 3078   3.726   3.223   2.763 -0.1618 -0.0188 -0.0060
  580CHL    CL2 3079   3.620   3.414   2.579 -0.3033  0.0744 -0.1757
  580CHL      H 3080   3.849   3.393   2.637 -0.7489  0.4699 -0.6767
  581CHL     CL 3081   0.224   1.453   3.288 -0.1740 -0.1550  0.0731
  581CHL      C 3082   0.352   1.524   3.185 -0.0633  0.2032  0.0617
  581CHL    CL1 3083   0.277   1.649   3.083  0.2848  0.1143  0.0614
  581CHL    CL2 3084   0.480   1.596   3.299 -0.3397  0.0656 -0.0899
  581CHL      H 3085   0.383   1.438   3.124 -0.6486 -0.1563  0.2593
  582CHL     CL 3086   0.502   0.937   4.058 -0.2940  0.1496 -0.3925
  582CHL      C 3087   0.546   0.815   3.938 -0.2169  0.5515  0.0775
  582CHL    CL1 3088   0.678   0.711   4.004  0.0050  0.2921  0.1547
  582CHL    CL2 3089   0.401   0.716   3.895 -0.0874 -0.2695  0.2056
  582CHL      H 3090   0.577   0.863   3.845 -0.5292  2.0351  0.7035
  583CHL     CL 3091   1.140   2.894   1.389  0.1179  0.0104  0.2323
  583CHL      C 3092   1.233   2.904   1.234 -0.1448  0.0651 -0.6572
  583CHL    CL1 3093   1.278   2.740   1.168 -0.0789  0.1158  0.4293
  583CHL    CL2 3094   1.125   2.988   1.120 -0.2093  0.1267  0.0565
  583CHL      H 3095   1.321   2.967   1.249  1.0515 -1.8161  0.6478
  584CHL     CL 3096   0.658   2.445   3.314  0.3589  0.4247  0.1449
  584CHL      C 3097   0.814   2.418   3.221 -0.1468 -0.2046 -0.6372
  584CHL    CL1 3098   0.792   2.499   3.057 -0.1626 -0.3962  0.2654
  584CHL    CL2 3099   0.950   2.498   3.301  0.2783 -0.0990 -0.0228
  584CHL      H 3100   0.821   2.309   3.207  2.6008 -0.5434  2.4144
  585CHL     CL 3101   2.601   1.695   4.093  0.1165 -0.0545 -0.0263
  585CHL      C 3102   2.446   1.653   4.168 -0.1865 -0.1059  0.2745
  585CHL    CL1 3103   2.414   1.479   4.136 -0.0782 -0.0980  0.1037
  585CHL    CL2 3104   2.460   1.687   4.333 -0.1374  0.3968  0.1717
  585CHL      H 3105   2.364   1.706   4.119 -0.7574 -1.3826 -0.2003
  586CHL     CL 3106   1.239   3.783   3.531  0.2594 -0.0833 -0.2592
  586CHL      C 3107   1.249   3.830   3.702  0.1953  0.2902 -0.3976
  586CHL    CL1 3108   1.209   4.003   3.710  0.0433  0.0896  0.1332
  586CHL    CL2 3109   1.125   3.737   3.799  0.2906 -0.0676  0.1627
  586CHL      H 3110   1.348   3.805   3.743 -1.0522 -3.2921  0.8031
  587CHL     CL 3111   3.436   3.313   0.745 -0.1019 -0.0344  0.0422
  587CHL      C 3112   3.557   3.453   0.739  0.5589 -0.1801 -0.3480
  587CHL    CL1 3113   3.704   3.430   0.842 -0.0156 -0.1711  0.0354
  587CHL    CL2 3114   3.607   3.474   0.576 -0.2464 -0.4531  0.5491
  587CHL      H 3115   3.506   3.547   0.761  0.7052  0.7044 -3.3680
  588CHL     CL 3116   0.809   0.979   1.355 -0.1150 -0.1330 -0.1440
  588CHL      C 3117   0.713   1.000   1.511 -0.4088 -0.6365  0.0632
  588CHL    CL1 3118   0.628   1.163   1.511  0.3987 -0.0013 -0.0316
  588CHL    CL2 3119   0.599   0.861   1.523 -0.0252  0.1144  0.0277
  588CHL      H 3120   0.783   0.988   1.595  0.5415  1.2527 -0.4160
  589CHL     CL 3121   0.026   3.072   0.590 -0.2235  0.3016  0.4631
  589CHL      C 3122  -0.082   3.046   0.444  0.2345  0.3891 -0.4900
  589CHL    CL1 3123  -0.128   3.208   0.379  0.1598 -0.1209  0.6384
  589CHL    CL2 3124   0.018   2.968   0.324 -0.1087 -0.1951 -0.3746
  589CHL      H 3125  -0.170   2.984   0.462 -0.8482  1.0934 -2.9658
  590CHL     CL 3126   0.709   1.609   2.369  0.0953  0.1123  0.3526
  590CHL      C 3127   0.763   1.600   2.539  0.2680 -0.2517 -0.3530
  590CHL    CL1 3128   0.630   1.529   2.641 -0.0130  0.1267 -0.0247
  590CHL    CL2 3129   0.894   1.479   2.569 -0.2137  0.1951 -0.3473
  590CHL      H 3130   0.798   1.697   2.578  0.2850 -0.5253  0.3340
  591CHL     CL 3131   4.109   3.718   3.628 -0.2010 -0.3966  0.2147
  591CHL      C 3132   3.982   3.594   3.659 -0.8422 -0.5921 -0.4390
  591CHL    CL1 3133   3.820   3.666   3.711 -0.0646  0.1024  0.1493
  591CHL    CL2 3134   3.969   3.491   3.500 -0.0008  0.0511 -0.2281
  591CHL      H 3135   4.015   3.524   3.736 -0.5940 -2.8103 -2.4737
  592CHL     CL 3136   2.613   2.074   2.556 -0.4190 -0.1683 -0.1422
  592CHL      C 3137   2.470   2.131   2.465  0.1400  0.3278  0.4729
  592CHL    CL1 3138   2.520   2.296   2.409  0.0279 -0.4748  0.0230
  592CHL    CL2 3139   2.423   2.026   2.325 -0.0825 -0.3362 -0.3366
  592CHL      H 3140   2.386   2.154   2.532  0.1947 -0.9679  0.9969
  593CHL     CL 3141   2.120   2.810   3.430  0.4766  0.0049  0.0276
  593CHL      C 3142   2.071   2.730   3.275 -0.0329 -0.0029  0.7504
  593CHL    CL1 3143   2.106   2.559   3.268 -0.0025 -0.1100 -0.1890
  593CHL    CL2 3144   1.898   2.760   3.243  0.1326 -0.0387  0.3864
  593CHL      H 3145   2.128   2.772   3.191  1.0444  0.3429  1.6216
  594CHL     CL 3146   3.857   2.533   2.145 -0.0604 -0.1393  0.1791
  594CHL      C 3147   3.783   2.694   2.097  0.0633 -0.3916  0.1762
  594CHL    CL1 3148   3.733   2.782   2.241  0.2952  0.0061 -0.1414
  594CHL    CL2 3149   3.901   2.788   1.987  0.0084 -0.1457 -0.1855
  594CHL      H 3150   3.694   2.673   2.036 -0.3347 -2.9060  1.4835
  595CHL     CL 3151   3.339   0.613   3.386  0.4752 -0.0280  0.0090
  595CHL      C 3152   3.283   0.487   3.281  0.2447  0.1770  0.7451
  595CHL    CL1 3153   3.108   0.469   3.271  0.3101  0.2286 -0.4353
  595CHL    CL2 3154   3.345   0.521   3.112 -0.3684 -0.3240 -0.0052
  595CHL      H 3155   3.323   0.395   3.324  2.9299  1.2558  0.7494
  596CHL     CL 3156   2.124   3.607   2.585 -0.0118  0.2402 -0.0405
  596CHL      C 3157   2.052   3.457   2.659 -0.3394 -0.1227 -0.4456
  596CHL    CL1 3158   1.913   3.405   2.558 -0.1266 -0.2102  0.1936
  596CHL    CL2 3159   2.185   3.331   2.665  0.1157 -0.0695 -0.6970
  596CHL      H 3160   2.015   3.474   2.761 -0.7530 -0.3447 -0.5552
  597CHL     CL 3161   2.150   1.517   1.597 -0.0937  0.2036  0.3224
  597CHL      C 3162   2.214   1.348   1.603 -0.3616  0.3335 -0.5700
  597CHL    CL1 3163   2.171   1.266   1.750  0.4502 -0.0808  0.1925
  597CHL    CL2 3164   2.151   1.262   1.463  0.2555  0.2831 -0.3436
  597CHL      H 3165   2.323   1.349   1.594 -0.1839 -0.1102  1.2012
  598CHL     CL 3166   2.922   3.973   1.784 -0.3112  0.0286 -0.1034
  598CHL      C 3167   2.745   4.031   1.792  0.1734  0.3719  0.5647
  598CHL    CL1 3168   2.674   3.941   1.929  0.0551 -0.1147 -0.3504
  598CHL    CL2 3169   2.730   4.199   1.832 -0.0672 -0.1859 -0.0143
  598CHL      H 3170   2.683   4.012   1.704  0.2520  0.6930  0.4379
  599CHL     CL 3171   0.995   1.475   3.855  0.0829 -0.1004  0.0920
  599CHL      C 3172   0.889   1.509   4.000 -0.7089  0.7509  0.7632
  599CHL    CL1 3173   0.997   1.584   4.119 -0.0140 -0.0592  0.2487
  599CHL    CL2 3174   0.764   1.630   3.948 -0.6022 -0.1826 -0.0317
  599CHL      H 3175   0.842   1.416   4.035  1.1983 -0.4040  0.4529
  600CHL     CL 3176   3.584   4.041   0.188 -0.0174 -0.3814 -0.0534
  600CHL      C 3177   3.516   3.893   0.088 -0.8694 -0.2177  0.0949
  600CHL    CL1 3178   3.606   3.748   0.141  0.1768 -0.1504 -0.2358
  600CHL    CL2 3179   3.346   3.863   0.149 -0.1558  0.1194 -0.1091
  600CHL      H 3180   3.501   3.905  -0.019  0.3228  0.0384 -0.0591
  601CHL     CL 3181   1.352   3.660   0.459 -0.0709 -0.0725 -0.0977
  601CHL      C 3182   1.313   3.631   0.287 -0.2121  0.0449 -0.4916
  601CHL    CL1 3183   1.444   3.549   0.206  0.3193 -0.1003  0.2297
  601CHL    CL2 3184   1.162   3.542   0.269  0.0201 -0.1740 -0.2246
  601CHL      H 3185   1.287   3.726   0.238  1.1265  0.0109 -1.3335
  602CHL     CL 3186   2.123   2.283   3.835 -0.1603 -0.1277  0.4045
  602CHL      C 3187   2.114   2.219   3.996 -0.2335 -0.1450 -0.2099
  602CHL    CL1 3188   2.206   2.320   4.111 -0.0622  0.0743  0.2367
  602CHL    CL2 3189   1.940   2.200   4.038  0.2164 -0.3492 -0.3827
  602CHL      H 3190   2.155   2.119   3.981 -1.7368 -0.6426 -1.2554
  603CHL     CL 3191   0.336   3.428   1.185 -0.0005 -0.2062 -0.0028
  603CHL      C 3192   0.253   3.454   1.337 -0.1822  0.0486  0.0478
  603CHL    CL1 3193   0.086   3.408   1.317  0.2822 -0.3373 -0.2164
  603CHL    CL2 3194   0.328   3.384   1.482 -0.2160  0.3525  0.1775
  603CHL      H 3195   0.256   3.562   1.354 -0.2345  0.5307 -2.5119
  604CHL     CL 3196   2.866   2.492   3.121  0.0153  0.2002  0.0371
  604CHL      C 3197   2.887   2.463   2.939 -0.5750  0.0750  0.2590
  604CHL    CL1 3198   3.022   2.568   2.875  0.1768  0.4301  0.0732
  604CHL    CL2 3199   2.909   2.295   2.896 -0.0967  0.5843 -0.0919
  604CHL      H 3200   2.793   2.493   2.891 -0.5753 -1.3198 -0.6761
  605CHL     CL 3201   0.325   2.051   1.378 -0.1120 -0.0612  0.6059
  605CHL      C 3202   0.510   2.047   1.370  0.1119 -0.3805 -0.1077
  605CHL    CL1 3203   0.565   2.217   1.334 -0.1100  0.3196 -0.5823
  605CHL    CL2 3204   0.585   2.007   1.524  0.1391 -0.2754  0.2735
  605CHL      H 3205   0.557   1.981   1.297 -2.1002 -1.4365 -0.6648
  606CHL     CL 3206   2.128   0.746   1.498  0.0624 -0.2325 -0.0779
  606CHL      C 3207   2.277   0.791   1.578 -0.1076  0.3234  0.1745
  606CHL    CL1 3208   2.410   0.790   1.458 -0.2574  0.2109  0.0136
  606CHL    CL2 3209   2.280   0.954   1.656  0.0731  0.1332  0.0981
  606CHL      H 3210   2.294   0.722   1.661  0.7757 -0.1113 -0.3549
  607CHL     CL 3211   1.839   3.670   0.021  0.6692  0.0800  0.1380
  607CHL      C 3212   1.806   3.564  -0.124 -0.0311 -0.4523  0.8576
  607CHL    CL1 3213   1.653   3.470  -0.089  0.4207  0.4891  0.2609
  607CHL    CL2 3214   1.766   3.680  -0.255  0.5654  0.0956  0.1773
  607CHL      H 3215   1.894   3.503  -0.147  1.1773  1.8065 -0.9395
  608CHL     CL 3216   0.475   3.599   1.983  0.0081  0.6645  0.0334
  608CHL      C 3217   0.642   3.537   1.964 -0.2552  0.1748 -0.1573
  608CHL    CL1 3218   0.693   3.548   1.788  0.3079 -0.2668  0.0291
  608CHL    CL2 3219   0.766   3.631   2.052  0.2018 -0.0378  0.3023
  608CHL      H 3220   0.642   3.433   1.998  1.3967  0.3810  0.5744
  609CHL     CL 3221   0.595   3.848   0.514 -0.2240 -0.0775 -0.1129
  609CHL      C 3222   0.744   3.915   0.593 -0.2382  0.5599 -0.6858
  609CHL    CL1 3223   0.711   4.076   0.664 -0.1194 -0.0419 -0.0565
  609CHL    CL2 3224   0.776   3.796   0.732 -0.2512  0.1487 -0.5084
  609CHL      H 3225   0.831   3.915   0.526  0.6147  0.1437  0.3744
  610CL      CL 3226   2.045   3.172   1.221  0.1259  0.0408 -0.4154
   4.37523   4.37523   4.37523
