nspe_7_2 in water
 2107
    1H02      N    1   1.101   3.459   2.517 -0.2112 -0.3755 -1.0034
    1H02     C1    2   0.981   3.442   2.433 -0.0047 -0.4437 -0.2164
    1H02     C2    3   0.890   3.561   2.443  0.0421 -0.0561  0.5194
    1H02     C3    4   1.014   3.411   2.287 -0.4469  0.2027  0.2835
    1H02     C4    5   0.952   3.310   2.225 -0.2698  0.4099 -0.2886
    1H02     C5    6   0.999   3.260   2.097  0.3581  0.3725  0.4451
    1H02     C6    7   1.110   3.311   2.039 -0.3963 -0.5670 -0.2118
    1H02     C7    8   1.176   3.413   2.109 -0.0778 -0.1043 -0.5495
    1H02     C8    9   1.131   3.466   2.232 -0.3700 -0.0872 -0.0891
    1H02     CA   10   1.181   3.332   2.524  0.9248 -0.4631 -0.5031
    1H02      C   11   1.319   3.343   2.480 -0.2213  0.9777  0.2131
    1H02      O   12   1.368   3.451   2.445  0.2950  0.7904  0.1587
    1H02     H1   13   1.066   3.489   2.607 -0.4502 -3.0142 -0.1434
    1H02     H2   14   1.168   3.526   2.480  2.1567 -1.7671  0.5499
    1H02     H3   15   0.925   3.355   2.469 -1.3073  0.7552  0.7925
    1H02     H4   16   0.787   3.542   2.413  0.0697 -2.6967  1.8316
    1H02     H5   17   0.928   3.649   2.390 -0.1481  0.7473  1.6739
    1H02     H6   18   0.877   3.586   2.549  2.5160 -0.1906  0.9158
    1H02     H7   19   0.866   3.265   2.274  0.4892  0.7114  1.3587
    1H02     H8   20   0.949   3.179   2.045 -1.2176  2.7846 -2.0655
    1H02     H9   21   1.140   3.279   1.939  0.7150  1.7596 -0.6839
    1H02    H10   22   1.267   3.453   2.064  1.4096 -0.1741  2.1237
    1H02    H11   23   1.184   3.550   2.275 -1.4023  1.0123 -0.8954
    1H02    H12   24   1.122   3.258   2.470 -1.4092 -0.8050  2.2893
    1H02    H13   25   1.186   3.302   2.629  1.3435  1.4685  0.0777
    2R02      N   26   1.397   3.225   2.481 -0.5462 -0.3056 -0.5289
    2R02     C1   27   1.344   3.092   2.542 -0.3876 -0.0588 -0.9279
    2R02     H1   28   1.242   3.081   2.503 -0.9409 -0.0394  0.4755
    2R02     C2   29   1.415   2.963   2.502 -0.0334 -0.4150  0.7218
    2R02     H2   30   1.515   2.955   2.545  0.9247  2.6115 -0.7030
    2R02     H3   31   1.427   2.949   2.394  0.2166  1.2181  0.5229
    2R02     H4   32   1.357   2.879   2.544 -0.7098 -0.1768  0.2883
    2R02     C3   33   1.349   3.096   2.696  0.2265 -0.4584  0.3067
    2R02     C4   34   1.464   3.149   2.758  0.1765 -0.2451  0.2240
    2R02     H5   35   1.552   3.186   2.706 -0.7179  1.9721  0.1672
    2R02     C5   36   1.459   3.154   2.900 -0.1924  0.1331 -0.2655
    2R02     H6   37   1.550   3.192   2.945  0.2669 -2.1146  0.8444
    2R02     C6   38   1.352   3.106   2.975 -0.9234 -0.0184  0.0014
    2R02     H7   39   1.365   3.105   3.083 -1.7469  2.0942  0.1609
    2R02     C7   40   1.237   3.069   2.908 -0.1864  0.2300 -0.0938
    2R02     H8   41   1.157   3.024   2.967  0.5378 -1.9871 -0.6987
    2R02     C8   42   1.233   3.054   2.773  0.0183  0.1073  0.1414
    2R02     H9   43   1.142   3.015   2.730  0.3662 -0.2934 -0.2446
    2R02     CA   44   1.537   3.225   2.411  0.1035 -0.5651 -0.0716
    2R02    H10   45   1.598   3.135   2.428  1.4054 -0.0697 -1.8685
    2R02    H11   46   1.597   3.314   2.436  0.0470 -0.6103  0.2264
    2R02      C   47   1.510   3.216   2.260 -0.2682 -0.5800 -0.3393
    2R02      O   48   1.393   3.205   2.231  0.0154 -0.1116  0.1809
    3R02      N   49   1.614   3.227   2.167 -0.1201 -0.0429 -0.1543
    3R02     C1   50   1.757   3.208   2.209  0.0036  0.1915  0.6416
    3R02     H1   51   1.758   3.125   2.281  0.0688  0.2802  0.7429
    3R02     C2   52   1.848   3.148   2.098  0.0527  0.8352  0.6519
    3R02     H2   53   1.869   3.228   2.026 -1.8818  0.4485 -0.4128
    3R02     H3   54   1.803   3.065   2.042  0.3495  0.3750  1.0861
    3R02     H4   55   1.936   3.113   2.153  0.1162 -1.8401 -0.9461
    3R02     C3   56   1.828   3.328   2.276  0.2589 -0.1180 -0.4535
    3R02     C4   57   1.828   3.458   2.222  0.7905  0.5485  0.0226
    3R02     H5   58   1.764   3.478   2.136  0.2835  1.9023  0.6809
    3R02     C5   59   1.914   3.558   2.261  0.2482  0.2103  0.5452
    3R02     H6   60   1.921   3.646   2.198  2.7203 -0.3546 -0.0869
    3R02     C6   61   1.997   3.532   2.374  0.0712  0.0872 -0.7145
    3R02     H7   62   2.059   3.613   2.411  0.5364 -0.3996 -0.4076
    3R02     C7   63   1.993   3.404   2.438 -0.1324  0.0893  0.0233
    3R02     H8   64   2.064   3.391   2.519 -1.2469  0.7034  1.1288
    3R02     C8   65   1.913   3.302   2.389 -0.6355  1.4389  0.3678
    3R02     H9   66   1.914   3.203   2.435  0.7352  0.2980 -1.9415
    3R02     CA   67   1.589   3.259   2.030 -0.1372  0.3048  0.1987
    3R02    H10   68   1.682   3.293   1.983  1.2146 -0.5088  2.1523
    3R02    H11   69   1.522   3.346   2.038  1.2919  1.6058 -1.2419
    3R02      C   70   1.548   3.140   1.950  0.2680  0.0905 -0.3057
    3R02      O   71   1.496   3.043   1.997  0.5754  0.0943 -0.3317
    4R02      N   72   1.569   3.149   1.810  0.4192  0.6990  0.4087
    4R02     C1   73   1.503   3.053   1.717  0.2617 -0.0818 -0.2046
    4R02     H1   74   1.428   3.002   1.779  1.0519  0.9836  1.7051
    4R02     C2   75   1.428   3.125   1.596  0.4211 -0.0788  0.3167
    4R02     H2   76   1.343   3.190   1.619  2.0286  1.8336  1.1732
    4R02     H3   77   1.396   3.058   1.515 -0.5033  1.7414 -0.8737
    4R02     H4   78   1.497   3.190   1.541  0.6950 -0.5755  0.0582
    4R02     C3   79   1.583   2.944   1.668  0.4532  0.1650  0.1991
    4R02     C4   80   1.724   2.944   1.683 -0.0834 -0.7416  0.0123
    4R02     H5   81   1.780   3.021   1.734  0.3193 -0.9757 -0.0746
    4R02     C5   82   1.800   2.841   1.625 -0.1167  0.6672 -0.5737
    4R02     H6   83   1.908   2.850   1.624 -0.1070  1.1010  1.1291
    4R02     C6   84   1.742   2.721   1.581 -0.2019 -0.2630 -0.3295
    4R02     H7   85   1.801   2.642   1.536 -0.5607  0.0040 -1.2895
    4R02     C7   86   1.603   2.720   1.570  0.0151  0.5366 -0.6411
    4R02     H8   87   1.555   2.630   1.534 -2.2254  1.2287  0.4092
    4R02     C8   88   1.520   2.832   1.612 -1.5082  0.0279  0.0976
    4R02     H9   89   1.412   2.834   1.614 -1.6122 -1.9220 -1.5017
    4R02     CA   90   1.659   3.251   1.736 -0.0429  0.0042  0.6781
    4R02    H10   91   1.694   3.209   1.640  2.2752  0.9184  1.0466
    4R02    H11   92   1.746   3.265   1.801 -0.3577  0.1601  1.0669
    4R02      C   93   1.582   3.384   1.703  1.2949  0.8563  0.0714
    4R02      O   94   1.461   3.401   1.730 -0.1237 -0.8505  0.1677
    5R02      N   95   1.651   3.487   1.637 -0.1944  0.0783  0.8510
    5R02     C1   96   1.583   3.621   1.608  0.4057  0.4302  0.0963
    5R02     H1   97   1.542   3.649   1.706 -2.5304  1.2015 -1.2573
    5R02     C2   98   1.678   3.738   1.573 -0.1364 -0.2718 -0.2828
    5R02     H2   99   1.721   3.739   1.472 -1.5553 -0.0111 -0.9050
    5R02     H3  100   1.765   3.744   1.640 -0.3860 -1.1616  0.1260
    5R02     H4  101   1.620   3.829   1.591  1.4667  1.0431 -1.4909
    5R02     C3  102   1.464   3.608   1.515 -0.8096  0.0049  0.6498
    5R02     C4  103   1.454   3.499   1.424  0.3914 -0.3440 -0.0912
    5R02     H5  104   1.530   3.421   1.417 -0.0291 -0.6811 -1.0762
    5R02     C5  105   1.338   3.480   1.347  0.4012 -0.4913  0.9798
    5R02     H6  106   1.330   3.396   1.279 -1.5278  1.2238 -1.0404
    5R02     C6  107   1.244   3.586   1.341 -0.2135  0.9052 -0.3494
    5R02     H7  108   1.159   3.584   1.274  1.1282 -0.4710 -2.1306
    5R02     C7  109   1.261   3.700   1.419 -0.7451  0.0317 -0.1690
    5R02     H8  110   1.190   3.782   1.409  0.4276  1.0102 -0.6401
    5R02     C8  111   1.365   3.705   1.512  0.4186 -0.2917 -0.1291
    5R02     H9  112   1.375   3.795   1.572 -1.0680  1.2720 -2.0649
    5R02     CA  113   1.786   3.481   1.579 -0.0527  0.5091  0.1670
    5R02    H10  114   1.789   3.527   1.479  0.0185 -2.2148 -1.1793
    5R02    H11  115   1.816   3.377   1.565 -0.7599  0.2370  0.6646
    5R02      C  116   1.898   3.531   1.675 -0.3103  0.4833 -0.4107
    5R02      O  117   1.884   3.513   1.794 -0.2247 -0.7082 -0.2127
    6R02      N  118   2.012   3.589   1.620  0.4891  0.3535 -0.2849
    6R02     C1  119   2.121   3.651   1.701  0.5504 -0.3282 -0.0822
    6R02     H1  120   2.092   3.635   1.805 -1.9461  1.5933 -0.3809
    6R02     C2  121   2.261   3.592   1.692 -0.7521 -0.6611 -0.1113
    6R02     H2  122   2.311   3.602   1.595 -1.5116  0.0877 -0.4364
    6R02     H3  123   2.254   3.485   1.716 -3.3065 -0.6173 -0.3758
    6R02     H4  124   2.327   3.636   1.768 -0.0097 -1.8582 -0.0334
    6R02     C3  125   2.119   3.800   1.698  0.4024 -0.5424  0.5842
    6R02     C4  126   2.204   3.884   1.616 -0.6907 -0.0199  0.6883
    6R02     H5  127   2.276   3.845   1.546 -1.6189  1.0232 -0.9209
    6R02     C5  128   2.191   4.018   1.628  0.4035  0.3359 -0.0093
    6R02     H6  129   2.254   4.084   1.569  1.1115  0.2045  0.5823
    6R02     C6  130   2.080   4.077   1.692 -0.1555 -0.2707 -0.2847
    6R02     H7  131   2.065   4.185   1.687 -1.0259 -0.3722 -0.0912
    6R02     C7  132   1.995   4.001   1.772 -0.0746  0.1856 -0.9297
    6R02     H8  133   1.908   4.037   1.827 -0.5219 -3.5505  1.1355
    6R02     C8  134   2.026   3.864   1.778 -0.1840  0.3075 -0.3335
    6R02     H9  135   1.954   3.797   1.824 -0.4218 -1.8241 -3.4405
    6R02     CA  136   2.047   3.593   1.474 -0.0683 -0.2732 -0.2872
    6R02    H10  137   2.131   3.661   1.457  0.7777 -1.1120  0.3643
    6R02    H11  138   1.960   3.637   1.424  2.2394  0.6358 -3.8433
    6R02      C  139   2.102   3.453   1.412 -0.0362  0.0205  0.8337
    6R02      O  140   2.121   3.358   1.488 -0.3573  0.1799  0.3339
    7R02      N  141   2.118   3.440   1.274 -0.6812 -0.3095 -0.4328
    7R02     C1  142   2.070   3.547   1.179 -1.6541 -0.5869 -0.3750
    7R02     H1  143   2.123   3.636   1.214 -0.7742 -1.2301 -0.0325
    7R02     C2  144   2.115   3.541   1.032  0.4084  0.7261  0.4152
    7R02     H2  145   2.060   3.462   0.981  2.3860 -2.1521  2.3568
    7R02     H3  146   2.220   3.517   1.010 -0.2847  0.4172 -3.1450
    7R02     H4  147   2.086   3.625   0.968 -0.5462  0.4004  0.4147
    7R02     C3  148   1.916   3.562   1.177  0.0380 -0.2267 -0.2306
    7R02     C4  149   1.835   3.445   1.156 -0.2104 -0.5227  0.4049
    7R02     H5  150   1.893   3.354   1.163  1.5427  0.5204  0.1093
    7R02     C5  151   1.692   3.450   1.153  0.1987 -0.1725  0.2598
    7R02     H6  152   1.631   3.360   1.148  0.7423 -0.5221 -0.2489
    7R02     C6  153   1.631   3.580   1.155 -0.3102 -0.1638 -0.4333
    7R02     H7  154   1.528   3.598   1.124  0.0895  2.4142 -0.5256
    7R02     C7  155   1.708   3.696   1.158 -0.2319  0.2661  0.2116
    7R02     H8  156   1.666   3.795   1.142 -0.7678 -0.5107 -4.2544
    7R02     C8  157   1.850   3.688   1.175 -0.1221 -0.0462 -0.1754
    7R02     H9  158   1.904   3.781   1.178  0.9821 -0.6869  1.4281
    7R02     CA  159   2.189   3.319   1.221 -0.3825 -0.2663  0.1695
    7R02    H10  160   2.164   3.301   1.116 -1.7058 -0.7067  0.5478
    7R02    H11  161   2.143   3.235   1.273 -0.6470 -0.1751  0.0880
    7R02      C  162   2.349   3.335   1.244 -0.6975  0.3648  0.1914
    7R02      O  163   2.413   3.428   1.204 -0.1641 -0.0798 -0.4480
    8NH2      N  164   2.417   3.243   1.312 -0.1799  0.4256  0.8353
    8NH2     H1  165   2.366   3.168   1.356  1.1461 -1.2398 -0.3646
    8NH2     H2  166   2.518   3.249   1.322 -0.0714 -1.6844  1.3986
    9CHL     CL  167   0.718   1.203   3.675  0.1771 -0.4153  0.0732
    9CHL      C  168   0.668   1.040   3.693  0.1504 -0.5528  0.5408
    9CHL    CL1  169   0.562   1.018   3.833 -0.2003 -0.0017 -0.0218
    9CHL    CL2  170   0.566   0.995   3.545  0.1225 -0.0425  0.3041
    9CHL      H  171   0.759   0.979   3.699  1.5647  1.1518 -1.6143
   10CHL     CL  172   1.725   0.504   3.594 -0.4915  0.3910  0.0684
   10CHL      C  173   1.818   0.468   3.445  0.2245  0.4156  0.2164
   10CHL    CL1  174   1.895   0.620   3.393  0.0691 -0.1384 -0.2631
   10CHL    CL2  175   1.956   0.351   3.482 -0.4566  0.0049 -0.0255
   10CHL      H  176   1.760   0.435   3.358 -1.0843  3.0712 -0.0272
   11CHL     CL  177   0.811   3.397   3.528  0.0019 -0.2562  0.0217
   11CHL      C  178   0.729   3.295   3.655  0.1230 -0.5339  0.5265
   11CHL    CL1  179   0.619   3.183   3.569 -0.1323  0.1591 -0.1820
   11CHL    CL2  180   0.853   3.199   3.745  0.2009  0.2034  0.0269
   11CHL      H  181   0.665   3.361   3.714 -0.0103 -0.1078 -0.0847
   12CHL     CL  182   0.547   0.382   1.790 -0.4667 -0.0033 -0.2566
   12CHL      C  183   0.393   0.290   1.807 -0.2080  0.3771 -0.8081
   12CHL    CL1  184   0.433   0.125   1.740  0.0160  0.6929 -0.1426
   12CHL    CL2  185   0.347   0.291   1.981  0.4034  0.1890 -0.0286
   12CHL      H  186   0.307   0.338   1.760 -0.5739  1.5841  1.0109
   13CHL     CL  187   1.360   1.381   2.153 -0.1367  0.1071 -0.2376
   13CHL      C  188   1.452   1.303   2.007  0.5633 -0.0275  0.2164
   13CHL    CL1  189   1.618   1.282   2.049  0.0488 -0.0563 -0.0448
   13CHL    CL2  190   1.376   1.140   1.969 -0.1516 -0.2005 -0.2276
   13CHL      H  191   1.444   1.367   1.919  2.6243  3.4648  2.3290
   14CHL     CL  192   1.785   3.097   3.408  0.1159  0.1531  0.2571
   14CHL      C  193   1.841   2.954   3.492  0.2062  0.0240 -0.0611
   14CHL    CL1  194   1.928   2.845   3.383 -0.0053 -0.1366 -0.1892
   14CHL    CL2  195   1.927   3.014   3.633  0.1659 -0.0161 -0.1711
   14CHL      H  196   1.744   2.908   3.517  1.6284 -3.7151 -0.7337
   15CHL     CL  197   2.006   1.902   3.391  0.0656 -0.2757  0.1811
   15CHL      C  198   2.024   1.743   3.298 -0.1697  0.1081  0.3469
   15CHL    CL1  199   1.953   1.753   3.129  0.1164  0.1957 -0.0027
   15CHL    CL2  200   2.193   1.685   3.288  0.3944 -0.0519  0.2325
   15CHL      H  201   1.966   1.668   3.353  0.6587 -2.0419 -1.5512
   16CHL     CL  202   1.017   0.987   2.814  0.5074 -0.1753 -0.1356
   16CHL      C  203   1.003   0.823   2.885 -0.2176 -1.3869 -0.0752
   16CHL    CL1  204   1.010   0.700   2.755 -0.0423  0.1785 -0.3900
   16CHL    CL2  205   1.142   0.804   2.996  0.3026  0.0433  0.1267
   16CHL      H  206   0.908   0.829   2.938 -1.1356 -1.2810 -1.6794
   17CHL     CL  207   3.502   2.077   3.515  0.1476 -0.4043  0.3059
   17CHL      C  208   3.343   2.066   3.601  0.2057  0.6285 -0.1841
   17CHL    CL1  209   3.377   2.013   3.777  0.1185 -0.1667  0.0844
   17CHL    CL2  210   3.277   2.236   3.611  0.1054 -0.5318  0.0625
   17CHL      H  211   3.267   2.002   3.554  1.5678 -1.4230  0.2385
   18CHL     CL  212   3.031   1.358   1.297  0.0563  0.0084  0.1018
   18CHL      C  213   2.888   1.380   1.401 -0.5052  0.7434  0.3683
   18CHL    CL1  214   2.930   1.505   1.510 -0.0789  0.3042  0.3003
   18CHL    CL2  215   2.733   1.425   1.312 -0.2812 -0.2226  0.1048
   18CHL      H  216   2.876   1.286   1.456 -0.2292  0.1005 -0.6474
   19CHL     CL  217   2.462   1.047   3.403 -0.2332  0.3163  0.0403
   19CHL      C  218   2.476   0.920   3.282  0.2660 -0.6293  0.2431
   19CHL    CL1  219   2.592   0.959   3.159 -0.0266 -0.3994 -0.1860
   19CHL    CL2  220   2.517   0.765   3.355  0.0740 -0.1495 -0.0097
   19CHL      H  221   2.378   0.912   3.234 -0.2122  1.3924  0.8003
   20CHL     CL  222   1.331   3.580   3.199  0.2320  0.4395  0.3184
   20CHL      C  223   1.332   3.538   3.021 -0.1635  0.7141 -0.0666
   20CHL    CL1  224   1.498   3.499   2.971 -0.0023 -0.2945  0.1415
   20CHL    CL2  225   1.222   3.398   3.003  0.2845 -0.0622 -0.3805
   20CHL      H  226   1.289   3.620   2.962  2.4057  1.0397 -1.6864
   21CHL     CL  227   0.727   0.305   2.126  0.2683 -0.1535 -0.2476
   21CHL      C  228   0.695   0.143   2.048 -1.0453  0.1758  0.0544
   21CHL    CL1  229   0.787   0.125   1.898 -0.0706 -0.3821  0.5872
   21CHL    CL2  230   0.748   0.016   2.169 -0.3630 -0.5143 -0.6376
   21CHL      H  231   0.590   0.128   2.022 -0.8013 -0.0436 -0.8162
   22CHL     CL  232   0.020   0.762   2.743  0.0271 -0.0570  0.3819
   22CHL      C  233   0.135   0.784   2.608 -0.0324  0.3793  0.4050
   22CHL    CL1  234   0.058   0.866   2.470  0.0894 -0.1028  0.1225
   22CHL    CL2  235   0.275   0.883   2.669 -0.4696  0.0377  0.1847
   22CHL      H  236   0.181   0.690   2.576  0.4296  0.9196 -0.5746
   23CHL     CL  237   0.527   1.392   1.808 -0.1750  0.2025 -0.1587
   23CHL      C  238   0.568   1.213   1.805  0.0609 -0.0843  0.6447
   23CHL    CL1  239   0.649   1.167   1.646  0.1904 -0.2216  0.0395
   23CHL    CL2  240   0.677   1.173   1.945  0.1309  0.2158  0.0992
   23CHL      H  241   0.471   1.163   1.816 -0.4653  0.5023 -1.0997
   24CHL     CL  242   3.736   2.405   1.749  0.3487 -0.2448 -0.0269
   24CHL      C  243   3.558   2.362   1.736 -0.5780 -0.5972 -0.0851
   24CHL    CL1  244   3.463   2.494   1.658 -0.2024 -0.0377  0.4115
   24CHL    CL2  245   3.527   2.214   1.638 -0.5632 -0.0951 -0.1538
   24CHL      H  246   3.526   2.350   1.840  1.0025 -0.8487  0.3929
   25CHL     CL  247   2.760   1.606   3.483  0.1533  0.1497 -0.0487
   25CHL      C  248   2.900   1.718   3.467 -0.2734  0.3400  0.3252
   25CHL    CL1  249   3.067   1.633   3.472  0.1793 -0.6497  0.2354
   25CHL    CL2  250   2.891   1.790   3.306 -0.1515 -0.0314 -0.6316
   25CHL      H  251   2.879   1.791   3.546 -1.5942  1.3736 -0.9206
   26CHL     CL  252   2.082   2.460   3.019 -0.2867 -0.0050 -0.2163
   26CHL      C  253   1.971   2.477   3.157 -0.2095 -0.5289 -0.7095
   26CHL    CL1  254   1.826   2.384   3.139 -0.1992  0.4908  0.0666
   26CHL    CL2  255   2.044   2.404   3.301 -0.1468 -0.2855  0.4321
   26CHL      H  256   1.959   2.583   3.185  1.6042 -0.4861  0.0558
   27CHL     CL  257   2.290   1.363   1.510  0.1960 -0.2109 -0.3143
   27CHL      C  258   2.186   1.359   1.664  0.3897 -0.0449  0.7850
   27CHL    CL1  259   2.046   1.256   1.637 -0.1176 -0.2418  0.1462
   27CHL    CL2  260   2.285   1.297   1.797  0.3090  0.0915 -0.1202
   27CHL      H  261   2.156   1.461   1.689  0.3115  0.0803  0.2008
   28CHL     CL  262   3.092   3.223   3.201  0.1490  0.0686 -0.1341
   28CHL      C  263   3.065   3.233   3.021 -0.4165  0.2846 -0.3272
   28CHL    CL1  264   3.012   3.074   2.973 -0.1101  0.4817  0.0190
   28CHL    CL2  265   2.941   3.358   2.979  0.1944 -0.1718  0.3050
   28CHL      H  266   3.165   3.261   2.984 -1.0244  1.8075 -0.8842
   29CHL     CL  267   0.997   0.398   0.334  0.1315  0.0401  0.4490
   29CHL      C  268   1.020   0.549   0.435  0.5101  0.3494 -0.2272
   29CHL    CL1  269   1.154   0.546   0.538  0.1148 -0.2584 -0.0250
   29CHL    CL2  270   1.025   0.695   0.325  0.2085  0.3674  0.4335
   29CHL      H  271   0.925   0.555   0.489  0.0612  0.0400 -0.9768
   30CHL     CL  272   1.076   3.087   1.603 -0.4651  0.1524  0.3789
   30CHL      C  273   1.027   3.252   1.552  0.4704  0.7336  0.2727
   30CHL    CL1  274   0.941   3.232   1.393 -0.4357  0.1444 -0.0364
   30CHL    CL2  275   0.909   3.329   1.666  0.1173  0.1595  0.0525
   30CHL      H  276   1.112   3.322   1.551  0.6142  0.5927 -1.9846
   31CHL     CL  277   2.850   3.711   2.821 -0.3303  0.3076  0.2323
   31CHL      C  278   2.754   3.803   2.954 -0.2336  0.0690  0.8150
   31CHL    CL1  279   2.647   3.924   2.880 -0.1503 -0.3071  0.1646
   31CHL    CL2  280   2.666   3.691   3.060 -0.2738  0.0851  0.0450
   31CHL      H  281   2.826   3.851   3.021 -0.1984  1.0919  0.0645
   32CHL     CL  282   1.756   2.425   3.772  0.1333  0.2718 -0.3110
   32CHL      C  283   1.720   2.391   3.936 -0.6274  0.1693 -0.8436
   32CHL    CL1  284   1.660   2.227   3.947 -0.1295 -0.1622 -0.3939
   32CHL    CL2  285   1.865   2.415   4.057 -0.3202 -0.0971  0.0803
   32CHL      H  286   1.637   2.458   3.961 -0.4452 -0.6018  2.2124
   33CHL     CL  287   3.807   0.974   3.638  0.0863 -0.1696 -0.3608
   33CHL      C  288   3.887   1.135   3.662  0.6830  0.2007 -0.5630
   33CHL    CL1  289   4.040   1.108   3.737 -0.0650 -0.2846  0.0926
   33CHL    CL2  290   3.895   1.240   3.513 -0.4815 -0.1320  0.2066
   33CHL      H  291   3.832   1.196   3.734  0.4715  3.0004 -2.9416
   34CHL     CL  292   1.528   2.318   2.792  0.3239  0.1203 -0.0241
   34CHL      C  293   1.533   2.293   2.618  0.0371  0.3076  0.5980
   34CHL    CL1  294   1.364   2.290   2.551  0.0610 -0.0814  0.4524
   34CHL    CL2  295   1.632   2.428   2.540 -0.1535 -0.1859 -0.0323
   34CHL      H  296   1.578   2.195   2.600  0.3695  0.2957  1.4365
   35CHL     CL  297   1.689   1.545   0.979 -0.0901 -0.4303  0.0625
   35CHL      C  298   1.616   1.698   0.935  0.3648 -0.4644 -0.2590
   35CHL    CL1  299   1.448   1.707   1.001  0.1086  0.0550  0.4769
   35CHL    CL2  300   1.719   1.831   1.015  0.0139 -0.0730  0.3111
   35CHL      H  301   1.616   1.721   0.828  0.8216 -0.2621 -0.2183
   36CHL     CL  302   1.389   0.018   2.251 -0.2080 -0.2279  0.0814
   36CHL      C  303   1.240   0.116   2.231  0.6440 -0.1126 -0.2696
   36CHL    CL1  304   1.252   0.208   2.077 -0.1616  0.1680  0.0219
   36CHL    CL2  305   1.100   0.006   2.215  0.3724 -0.3711  0.0719
   36CHL      H  306   1.225   0.176   2.322 -1.9351 -1.0587 -0.0056
   37CHL     CL  307   2.198   1.546   0.688  0.0935  0.1315 -0.2079
   37CHL      C  308   2.188   1.454   0.842  0.1782 -0.3920  0.8646
   37CHL    CL1  309   2.248   1.288   0.811  0.1648 -0.1345  0.1714
   37CHL    CL2  310   2.285   1.542   0.975 -0.1492 -0.0274 -0.2744
   37CHL      H  311   2.081   1.463   0.862  0.1442  2.9193 -0.0704
   38CHL     CL  312   0.388   1.504   0.140 -0.0691  0.5028 -0.4106
   38CHL      C  313   0.556   1.461   0.102  0.3475 -0.5810  0.0012
   38CHL    CL1  314   0.664   1.603   0.096 -0.4422 -0.5160  0.3599
   38CHL    CL2  315   0.625   1.346   0.223 -0.1581  0.3564  0.3042
   38CHL      H  316   0.552   1.408   0.007  0.1308 -0.1861 -0.2145
   39CHL     CL  317   0.777   0.860   1.606 -0.1765  0.2264  0.1172
   39CHL      C  318   0.611   0.818   1.663  0.2770 -0.4830  0.2804
   39CHL    CL1  319   0.571   0.648   1.610 -0.2504  0.3416  0.3855
   39CHL    CL2  320   0.613   0.820   1.835  0.1118 -0.2655  0.3630
   39CHL      H  321   0.530   0.885   1.633 -2.0760 -2.4256  1.9334
   40CHL     CL  322   3.182   0.522   2.757  0.3087 -0.4137  0.0898
   40CHL      C  323   3.107   0.358   2.725 -0.1981  0.4455 -0.5676
   40CHL    CL1  324   3.165   0.221   2.839  0.2947 -0.0199 -0.2552
   40CHL    CL2  325   2.923   0.364   2.739  0.1477  0.2583 -0.3320
   40CHL      H  326   3.126   0.332   2.621 -0.2349 -0.4116 -0.3683
   41CHL     CL  327   1.241   0.166   2.856 -0.3124  0.1170 -0.1393
   41CHL      C  328   1.253   0.201   2.677  0.1269  0.1006  0.1848
   41CHL    CL1  329   1.195   0.364   2.631 -0.2841 -0.0812  0.2473
   41CHL    CL2  330   1.428   0.189   2.623  0.4954 -0.0211 -0.1278
   41CHL      H  331   1.181   0.134   2.629 -0.4666  1.5081 -0.9753
   42CHL     CL  332   2.738   3.466   3.521  0.2524  0.0019 -0.5535
   42CHL      C  333   2.805   3.485   3.682  0.0378 -0.5354  0.1853
   42CHL    CL1  334   2.714   3.396   3.813  0.0364 -0.0890 -0.2211
   42CHL    CL2  335   2.978   3.434   3.674  0.1688  0.0863 -0.1197
   42CHL      H  336   2.793   3.587   3.718 -2.2758 -0.3193 -1.0277
   43CHL     CL  337   1.675   0.814   1.607 -0.0469  0.0270  0.5149
   43CHL      C  338   1.594   0.976   1.600  0.6162  0.5402 -0.3494
   43CHL    CL1  339   1.689   1.089   1.697 -0.1150  0.4629 -0.1566
   43CHL    CL2  340   1.582   1.026   1.425  0.2229 -0.2646  0.5201
   43CHL      H  341   1.493   0.966   1.640  0.4622  1.7954 -0.3778
   44CHL     CL  342   3.766   2.693   1.472 -0.2896  0.2052 -0.4670
   44CHL      C  343   3.912   2.688   1.362  0.5495  0.1123  0.5686
   44CHL    CL1  344   4.028   2.831   1.404  0.3102 -0.0124 -0.0560
   44CHL    CL2  345   3.987   2.520   1.360  0.2194 -0.1984 -0.3412
   44CHL      H  346   3.886   2.711   1.258  3.5778  0.8535 -0.1268
   45CHL     CL  347   3.315   2.768   3.803  0.1355  0.1849  0.0450
   45CHL      C  348   3.138   2.704   3.800  0.1117  0.6099  0.3596
   45CHL    CL1  349   3.122   2.581   3.668  0.0311  0.4142 -0.0649
   45CHL    CL2  350   3.092   2.652   3.964  0.0975 -0.1077 -0.1555
   45CHL      H  351   3.073   2.789   3.779  0.8376  0.9012 -0.7568
   46CHL     CL  352   2.858   1.986   2.758  0.2746 -0.0370 -0.3371
   46CHL      C  353   2.775   2.153   2.800  0.4941  0.0007 -0.6674
   46CHL    CL1  354   2.861   2.237   2.939 -0.3957 -0.4608  0.0367
   46CHL    CL2  355   2.780   2.256   2.647 -0.0222 -0.3410  0.2816
   46CHL      H  356   2.670   2.138   2.827  0.5056 -0.9381 -1.1131
   47CHL     CL  357   0.376   2.612   2.840 -0.1047 -0.2719  0.1650
   47CHL      C  358   0.392   2.514   2.988  0.6066  0.2261  0.0930
   47CHL    CL1  359   0.279   2.371   2.971 -0.0823 -0.4151  0.0592
   47CHL    CL2  360   0.562   2.452   3.002  0.0261  0.1567  0.3874
   47CHL      H  361   0.365   2.566   3.080  0.0832  0.9669 -0.4585
   48CHL     CL  362   2.453   1.766   3.622  0.0422 -0.0322  0.1157
   48CHL      C  363   2.497   1.733   3.787  0.0702 -0.0640  0.5320
   48CHL    CL1  364   2.575   1.572   3.777  0.4564  0.3400  0.2823
   48CHL    CL2  365   2.614   1.858   3.855  0.3071  0.2211  0.0659
   48CHL      H  366   2.408   1.724   3.851 -0.2097  0.4890  0.2308
   49CHL     CL  367   1.125   1.311   1.155  0.0116 -0.1739 -0.2481
   49CHL      C  368   1.285   1.237   1.117  0.1558 -0.0689 -0.4150
   49CHL    CL1  369   1.333   1.293   0.949 -0.2682  0.0266  0.1237
   49CHL    CL2  370   1.405   1.308   1.242  0.5183  0.0641  0.1175
   49CHL      H  371   1.290   1.130   1.137  0.7691  0.2215  1.0835
   50CHL     CL  372   2.990   2.272   0.093 -0.2401  0.3650 -0.1180
   50CHL      C  373   2.866   2.148   0.115  0.0317  0.8438 -0.2422
   50CHL    CL1  374   2.697   2.200   0.077 -0.1243  0.3662  0.3098
   50CHL    CL2  375   2.893   2.007   0.003  0.0255  0.1380  0.0706
   50CHL      H  376   2.873   2.110   0.217  1.7408  1.1675 -0.2113
   51CHL     CL  377   3.473   1.415   3.267  0.1293 -0.1108 -0.2710
   51CHL      C  378   3.446   1.515   3.421  0.2112  0.1946  0.0550
   51CHL    CL1  379   3.534   1.435   3.554 -0.2887 -0.3990 -0.1202
   51CHL    CL2  380   3.508   1.687   3.386 -0.1433  0.8596  0.0425
   51CHL      H  381   3.344   1.536   3.453 -0.0974  1.5139 -1.6828
   52CHL     CL  382   2.913   1.340   3.678 -0.0549 -0.4257  0.1032
   52CHL      C  383   2.768   1.271   3.608  0.2638  0.4473  0.3792
   52CHL    CL1  384   2.820   1.137   3.498  0.2502 -0.1247 -0.2227
   52CHL    CL2  385   2.662   1.195   3.739  0.4209  0.0838  0.1184
   52CHL      H  386   2.706   1.340   3.549  1.8949  1.7478  0.1122
   53CHL     CL  387   0.780   1.259   3.318  0.2057  0.4428 -0.0185
   53CHL      C  388   0.901   1.128   3.349 -0.4444  0.5238 -0.5560
   53CHL    CL1  389   0.828   0.969   3.339 -0.2945 -0.0155 -0.3372
   53CHL    CL2  390   1.037   1.139   3.236 -0.1451 -0.0339  0.3540
   53CHL      H  391   0.944   1.141   3.449 -2.5551  0.6656  0.3807
   54CHL     CL  392   3.668   1.067   3.296 -0.4366  0.2485 -0.2252
   54CHL      C  393   3.742   1.047   3.139 -0.4671  0.1914 -0.6309
   54CHL    CL1  394   3.786   0.878   3.111 -0.0713  0.1132 -0.0158
   54CHL    CL2  395   3.619   1.094   3.019 -0.2528 -0.1005  0.2292
   54CHL      H  396   3.827   1.115   3.128 -1.7773  1.4990 -4.1149
   55CHL     CL  397   2.842   3.183   1.767  0.0794 -0.5329  0.0931
   55CHL      C  398   2.816   3.008   1.813  0.3538 -0.9978  0.4251
   55CHL    CL1  399   2.924   2.969   1.957  0.3140 -0.1413  0.2718
   55CHL    CL2  400   2.646   2.991   1.868  0.1648  0.0043  0.1628
   55CHL      H  401   2.848   2.947   1.728  0.9182  0.2430 -0.2811
   56CHL     CL  402   0.797   1.938   2.809 -0.1285 -0.3810  0.1179
   56CHL      C  403   0.701   2.074   2.857  0.2595  0.0731  0.0361
   56CHL    CL1  404   0.793   2.195   2.962  0.2300  0.1496  0.3539
   56CHL    CL2  405   0.637   2.159   2.712  0.1982  0.0740  0.1042
   56CHL      H  406   0.618   2.040   2.918 -1.6253  0.8940 -1.9437
   57CHL     CL  407   0.669   2.114   0.042  0.2785 -0.3571 -0.1421
   57CHL      C  408   0.560   2.142   0.175  0.4843 -0.0585 -0.1954
   57CHL    CL1  409   0.420   2.247   0.119 -0.0934 -0.0088  0.3166
   57CHL    CL2  410   0.509   1.987   0.243 -0.2444  0.2147 -0.2761
   57CHL      H  411   0.609   2.192   0.259 -0.0505  0.0674  0.0418
   58CHL     CL  412   1.174   0.286   0.059  0.1399  0.0829 -0.3835
   58CHL      C  413   1.042   0.164   0.054  0.8948  0.4428 -0.7152
   58CHL    CL1  414   1.020   0.072   0.212 -0.1753 -0.2850 -0.2193
   58CHL    CL2  415   0.893   0.258   0.022  0.5593  0.4873 -0.3938
   58CHL      H  416   1.068   0.087  -0.020  2.9692  0.8109 -0.4467
   59CHL     CL  417   3.363   1.474   2.629 -0.0956 -0.1394  0.2664
   59CHL      C  418   3.192   1.484   2.681  0.2527 -0.1968 -0.5209
   59CHL    CL1  419   3.117   1.320   2.653 -0.2195  0.5397 -0.3124
   59CHL    CL2  420   3.187   1.538   2.855 -0.3678 -0.3122 -0.2760
   59CHL      H  421   3.154   1.562   2.614 -0.3509 -0.4905 -0.5213
   60CHL     CL  422   0.228   1.046   1.796  0.8286 -0.2171 -0.2240
   60CHL      C  423   0.153   1.200   1.720  0.1683 -0.7510  0.2197
   60CHL    CL1  424   0.168   1.334   1.841 -0.0049  0.0091  0.4104
   60CHL    CL2  425   0.250   1.255   1.580  0.2791  0.0084  0.3021
   60CHL      H  426   0.048   1.188   1.691  0.2666  0.7663 -0.8732
   61CHL     CL  427   0.286   1.875   2.751 -0.4625 -0.5792  0.0502
   61CHL      C  428   0.118   1.933   2.726 -0.1744 -0.5478  0.7474
   61CHL    CL1  429   0.012   1.796   2.757 -0.2649 -0.4311  0.0662
   61CHL    CL2  430   0.076   2.080   2.827  0.5263 -0.1221 -0.2191
   61CHL      H  431   0.106   1.944   2.618  1.9522 -1.7642  0.3173
   62CHL     CL  432   2.335   2.097   1.845  0.0624 -0.0543 -0.7553
   62CHL      C  433   2.462   2.180   1.758  0.1403 -0.0474  0.0241
   62CHL    CL1  434   2.584   2.061   1.696  0.2773  0.2941 -0.1907
   62CHL    CL2  435   2.392   2.280   1.619 -0.3759 -0.3968  0.3171
   62CHL      H  436   2.522   2.243   1.824  1.0734 -0.6682 -0.2089
   63CHL     CL  437   1.144   2.706   3.556 -0.0962  0.1442 -0.5785
   63CHL      C  438   0.991   2.709   3.648  0.2282  0.2296 -1.0464
   63CHL    CL1  439   0.899   2.866   3.633  0.6547 -0.1025 -0.0171
   63CHL    CL2  440   0.888   2.585   3.589  0.4036  0.5155 -0.1029
   63CHL      H  441   1.019   2.697   3.753  1.0431 -0.1781 -1.3016
   64CHL     CL  442   3.023   1.826   1.856 -0.3584 -0.2058 -0.0834
   64CHL      C  443   2.893   1.734   1.921  0.1545  0.6012  0.3172
   64CHL    CL1  444   2.920   1.714   2.095 -0.0519 -0.1486 -0.0409
   64CHL    CL2  445   2.751   1.824   1.891  0.1173 -0.0131 -0.3012
   64CHL      H  446   2.884   1.634   1.876  0.6212  0.8964 -0.4586
   65CHL     CL  447   1.559   0.840   0.139  0.0558  0.2405 -0.1629
   65CHL      C  448   1.434   0.712   0.124 -0.2743 -0.7816  0.1759
   65CHL    CL1  449   1.472   0.585   0.249  0.0826  0.3773  0.2109
   65CHL    CL2  450   1.278   0.796   0.132  0.0838  0.0371 -0.0908
   65CHL      H  451   1.448   0.663   0.027  0.7280  1.4650 -0.8760
   66CHL     CL  452   1.516   2.621   3.592 -0.1326  0.6282 -0.3842
   66CHL      C  453   1.574   2.621   3.421  0.1065 -0.4259 -0.9858
   66CHL    CL1  454   1.497   2.499   3.311 -0.4786 -0.0683 -0.5228
   66CHL    CL2  455   1.530   2.781   3.371 -0.2243  0.0503 -0.3426
   66CHL      H  456   1.684   2.623   3.427  0.0528  2.2276  0.4846
   67CHL     CL  457   2.465   3.219   0.647 -0.2411  0.2375  0.1030
   67CHL      C  458   2.327   3.184   0.749 -0.1794  0.1890 -0.3632
   67CHL    CL1  459   2.402   3.130   0.907  0.0079  0.3414 -0.3022
   67CHL    CL2  460   2.234   3.333   0.763 -0.3204 -0.3354 -0.0666
   67CHL      H  461   2.268   3.113   0.691 -1.4409  0.8197  0.1116
   68CHL     CL  462   3.508   1.726   2.800 -0.2048  0.1018 -0.0762
   68CHL      C  463   3.546   1.637   2.956 -0.7052  0.0066  0.0064
   68CHL    CL1  464   3.620   1.480   2.912 -0.1895  0.1659 -0.2269
   68CHL    CL2  465   3.647   1.741   3.062  0.0664  0.0663 -0.1904
   68CHL      H  466   3.455   1.622   3.015  0.0169  0.3618  1.2687
   69CHL     CL  467   0.993   1.516   2.067  0.1711  0.4189 -0.2674
   69CHL      C  468   0.841   1.548   1.984  0.2302  0.8576  0.3771
   69CHL    CL1  469   0.787   1.725   2.005  0.2041 -0.4483 -0.5441
   69CHL    CL2  470   0.866   1.502   1.805  0.0974 -0.1208 -0.7322
   69CHL      H  471   0.764   1.483   2.026 -1.6409  0.2170 -3.5248
   70CHL     CL  472   0.164   1.599   3.047  0.0864 -0.1252 -0.0252
   70CHL      C  473   0.087   1.524   3.197 -0.0581  0.2841  0.8345
   70CHL    CL1  474   0.109   1.343   3.183 -0.4980 -0.1914  0.4078
   70CHL    CL2  475   0.143   1.599   3.353  0.1694  0.7329 -0.0750
   70CHL      H  476  -0.022   1.534   3.196 -0.1659 -0.8544  0.0977
   71CHL     CL  477   1.503   2.636   1.898  0.1902  0.0456  0.3097
   71CHL      C  478   1.614   2.754   1.981 -0.2727 -0.0879 -0.2567
   71CHL    CL1  479   1.590   2.765   2.157 -0.4454 -0.1874 -0.1909
   71CHL    CL2  480   1.778   2.706   1.937  0.2402  0.1277  0.0135
   71CHL      H  481   1.596   2.853   1.938 -0.8696 -0.4057 -0.7722
   72CHL     CL  482   0.525   3.178   0.371  0.0534 -0.0177 -0.2733
   72CHL      C  483   0.454   3.043   0.454  0.4042  0.0171  0.0162
   72CHL    CL1  484   0.493   3.038   0.627 -0.1240 -0.2802 -0.0758
   72CHL    CL2  485   0.280   3.055   0.437 -0.2747 -0.2319  0.1626
   72CHL      H  486   0.481   2.955   0.395  2.1068  0.3067  0.3174
   73CHL     CL  487   0.279   2.156   2.156 -0.0222 -0.0638 -0.2384
   73CHL      C  488   0.247   2.309   2.072 -1.1744 -1.0834  0.1819
   73CHL    CL1  489   0.067   2.355   2.068  0.0654  0.2414 -0.0149
   73CHL    CL2  490   0.338   2.455   2.135  0.5698 -0.0513 -0.4163
   73CHL      H  491   0.268   2.288   1.967 -3.3176 -1.7327 -0.1689
   74CHL     CL  492   1.775   0.127   2.245  0.5494  0.1854  0.3772
   74CHL      C  493   1.946   0.125   2.291 -0.3242 -0.4665 -0.6967
   74CHL    CL1  494   2.030   0.275   2.209 -0.1516 -0.3470  0.0500
   74CHL    CL2  495   1.968   0.135   2.474 -0.0384  0.1172  0.0932
   74CHL      H  496   1.992   0.030   2.261 -1.3373 -2.4897  3.3687
   75CHL     CL  497   2.407   0.255   0.324 -0.1524 -0.2650 -0.2695
   75CHL      C  498   2.520   0.304   0.201  0.0864  0.8449  0.1031
   75CHL    CL1  499   2.508   0.223   0.042  0.3437  0.8172  0.1554
   75CHL    CL2  500   2.504   0.485   0.176 -0.2213 -0.1919 -0.4975
   75CHL      H  501   2.616   0.285   0.250 -0.2642  1.0413  0.8666
   76CHL     CL  502   3.402   3.361   2.279  0.4143  0.1385  0.2916
   76CHL      C  503   3.335   3.523   2.277  0.1001 -0.0871 -0.6006
   76CHL    CL1  504   3.434   3.629   2.167 -0.3046 -0.0843  0.3419
   76CHL    CL2  505   3.158   3.527   2.229  0.0799  0.1720  0.1502
   76CHL      H  506   3.349   3.568   2.376  0.3362  3.0926 -1.9576
   77CHL     CL  507   2.402   3.504   0.390 -0.1739 -0.0118 -0.1820
   77CHL      C  508   2.238   3.444   0.366  0.5156 -0.0586 -0.7274
   77CHL    CL1  509   2.214   3.273   0.416 -0.1715  0.2314  0.2104
   77CHL    CL2  510   2.121   3.526   0.483 -0.0918 -0.0771 -0.1916
   77CHL      H  511   2.199   3.461   0.265  0.5100 -2.5331 -1.1854
   78CHL     CL  512   1.783   3.298   0.259 -0.0626  0.0606 -0.4258
   78CHL      C  513   1.698   3.351   0.112 -0.3709 -0.3141  0.1706
   78CHL    CL1  514   1.751   3.263  -0.036  0.3878 -0.1256 -0.0490
   78CHL    CL2  515   1.520   3.358   0.142 -0.2945 -0.2434  0.1523
   78CHL      H  516   1.742   3.448   0.086 -0.2993 -0.8954 -2.1871
   79CHL     CL  517   1.632   1.328   0.712 -0.0529 -0.0647 -0.3082
   79CHL      C  518   1.661   1.371   0.535 -0.1557 -0.5130 -0.0864
   79CHL    CL1  519   1.541   1.277   0.429 -0.0267 -0.3520 -0.4133
   79CHL    CL2  520   1.643   1.556   0.510  0.2142  0.0235  0.1857
   79CHL      H  521   1.759   1.343   0.495  0.2541 -0.2515  0.7153
   80CHL     CL  522   3.799   3.007   2.735 -0.0248 -0.5159  0.3138
   80CHL      C  523   3.974   3.027   2.768 -0.1026  0.1184  0.0077
   80CHL    CL1  524   4.006   2.960   2.928 -0.0012 -0.0488  0.5885
   80CHL    CL2  525   4.058   2.942   2.634  0.0086  0.3629 -0.4523
   80CHL      H  526   4.009   3.131   2.764  2.8733 -0.7810 -0.0596
   81CHL     CL  527   0.041   3.219   3.517 -0.1967 -0.2268 -0.3188
   81CHL      C  528   0.155   3.242   3.382 -0.4196  0.0978 -0.0307
   81CHL    CL1  529   0.123   3.127   3.249  0.1059  0.1072 -0.1511
   81CHL    CL2  530   0.141   3.395   3.300  0.1299 -0.2416 -0.1732
   81CHL      H  531   0.261   3.225   3.406 -0.0557  2.8743  0.7828
   82CHL     CL  532   0.017   0.486   1.343  0.1307  0.4010 -0.3730
   82CHL      C  533   0.038   0.344   1.453  0.4532  0.0631  0.4574
   82CHL    CL1  534   0.180   0.254   1.382  0.2336  0.2342  0.0101
   82CHL    CL2  535   0.076   0.397   1.619 -0.0136  0.2585 -0.1812
   82CHL      H  536  -0.050   0.281   1.464 -0.2916  0.6164 -1.7853
   83CHL     CL  537   2.692   1.414   2.556  0.3422  0.4419  0.0554
   83CHL      C  538   2.790   1.539   2.471 -0.4721  0.0523 -0.2341
   83CHL    CL1  539   2.876   1.640   2.606  0.4060 -0.1864 -0.0248
   83CHL    CL2  540   2.920   1.458   2.374  0.2208 -0.2305 -0.1318
   83CHL      H  541   2.722   1.594   2.405 -0.9907 -1.3574 -0.9086
   84CHL     CL  542   0.342   1.521   0.516 -0.1798  0.1589 -0.2038
   84CHL      C  543   0.359   1.381   0.628 -0.7106 -0.3542  0.0641
   84CHL    CL1  544   0.394   1.437   0.791 -0.2568 -0.3399  0.0343
   84CHL    CL2  545   0.220   1.267   0.618  0.1655  0.0735 -0.1388
   84CHL      H  546   0.441   1.326   0.581 -1.3147 -1.0795 -0.1694
   85CHL     CL  547   3.794   3.077   1.336  0.1185  0.0011 -0.0538
   85CHL      C  548   3.913   3.196   1.413  0.5491  0.3598 -0.9456
   85CHL    CL1  549   3.978   3.115   1.569 -0.2056  0.1779  0.5728
   85CHL    CL2  550   4.041   3.220   1.288  0.2492  0.4523 -0.0752
   85CHL      H  551   3.862   3.291   1.432  0.1063  0.3266 -1.8964
   86CHL     CL  552   3.576   3.595   0.978  0.0540  0.0017  0.1330
   86CHL      C  553   3.737   3.574   0.898 -0.0432 -0.3987  0.1862
   86CHL    CL1  554   3.721   3.503   0.729  0.5075  0.0727  0.2169
   86CHL    CL2  555   3.825   3.732   0.902 -0.0530 -0.2805 -0.3720
   86CHL      H  556   3.790   3.499   0.958  2.4553 -0.1622 -1.5753
   87CHL     CL  557   3.586   3.552   3.670  0.1002 -0.0247  0.4530
   87CHL      C  558   3.655   3.713   3.626  0.0075  0.0245 -0.2267
   87CHL    CL1  559   3.647   3.751   3.450 -0.2760  0.3955 -0.0040
   87CHL    CL2  560   3.573   3.838   3.728 -0.1211  0.1857  0.1937
   87CHL      H  561   3.759   3.714   3.661 -0.0580 -0.3507 -0.0143
   88CHL     CL  562   1.168   2.873   0.338  0.0936  0.2686  0.1863
   88CHL      C  563   1.111   3.041   0.393  0.6643  0.2278  0.2222
   88CHL    CL1  564   1.193   3.172   0.296 -0.4247  0.3070 -0.2310
   88CHL    CL2  565   0.938   3.062   0.354  0.1379  0.0773  0.0755
   88CHL      H  566   1.133   3.055   0.499  0.1898 -0.9312  0.4944
   89CHL     CL  567   1.301   1.673   1.435  0.2567  0.1037 -0.1732
   89CHL      C  568   1.442   1.784   1.427 -0.5840  0.0456  0.0265
   89CHL    CL1  569   1.582   1.696   1.344  0.5151 -0.5184 -0.2086
   89CHL    CL2  570   1.400   1.935   1.330 -0.2039 -0.0504 -0.1085
   89CHL      H  571   1.466   1.822   1.527  1.1037  3.4939 -1.5265
   90CHL     CL  572   2.810   1.427   3.176 -0.2017 -0.4530  0.1823
   90CHL      C  573   2.956   1.421   3.071  0.0010 -0.0259  0.0807
   90CHL    CL1  574   3.100   1.417   3.174  0.0650  0.0910  0.2416
   90CHL    CL2  575   2.949   1.269   2.982  0.3354 -0.0786  0.2091
   90CHL      H  576   2.955   1.503   2.999  3.7984  0.7150  0.6293
   91CHL     CL  577   3.800   3.642   1.279 -0.0663 -0.2766  0.1683
   91CHL      C  578   3.697   3.607   1.424 -0.2016  0.6298  0.3283
   91CHL    CL1  579   3.601   3.756   1.465  0.1310  0.4128  0.3851
   91CHL    CL2  580   3.581   3.469   1.402  0.0964 -0.0948 -0.1493
   91CHL      H  581   3.755   3.586   1.515 -2.2207  0.4915  1.6505
   92CHL     CL  582   0.880   0.512   1.407  0.1951 -0.2972 -0.0573
   92CHL      C  583   0.809   0.390   1.524 -0.6355 -0.3907 -0.5731
   92CHL    CL1  584   0.651   0.334   1.458  0.3872 -0.2320  0.1872
   92CHL    CL2  585   0.918   0.253   1.546 -0.2563  0.3871 -0.0350
   92CHL      H  586   0.783   0.433   1.621 -1.8838 -0.3618 -0.9100
   93CHL     CL  587   3.733   1.378   1.500 -0.3526  0.1818 -0.1439
   93CHL      C  588   3.687   1.498   1.377 -0.0092  0.1553 -0.2824
   93CHL    CL1  589   3.533   1.472   1.304 -0.0582 -0.1996  0.0453
   93CHL    CL2  590   3.681   1.656   1.454 -0.6449 -0.3617 -0.0804
   93CHL      H  591   3.760   1.498   1.295  1.9209  2.6171  1.2990
   94CHL     CL  592   0.801   1.734   3.067 -0.1493  0.5195  0.0936
   94CHL      C  593   0.939   1.805   3.150  0.2476  0.0528 -1.4253
   94CHL    CL1  594   0.884   1.961   3.221  0.4056  0.0262  0.1797
   94CHL    CL2  595   1.009   1.707   3.281  0.3642 -0.2702  0.2561
   94CHL      H  596   1.018   1.816   3.075  0.4426 -0.5020 -1.3079
   95CHL     CL  597   0.311   2.573   0.910  0.2753 -0.2095 -0.3369
   95CHL      C  598   0.161   2.564   0.798 -0.4640 -0.1341 -0.1550
   95CHL    CL1  599   0.157   2.715   0.692 -0.1149  0.1444 -0.2450
   95CHL    CL2  600   0.177   2.413   0.686 -0.4274  0.3323 -0.0973
   95CHL      H  601   0.065   2.554   0.850 -0.2424 -0.3046  0.2225
   96CHL     CL  602   1.274   2.287   2.214  0.1099 -0.5894 -0.3873
   96CHL      C  603   1.360   2.363   2.082 -0.5721  0.3218  0.4019
   96CHL    CL1  604   1.507   2.270   2.047 -0.0075  0.0910 -0.2308
   96CHL    CL2  605   1.272   2.346   1.931 -0.1568 -0.4298 -0.5705
   96CHL      H  606   1.377   2.469   2.107 -0.5735  0.2564  0.6798
   97CHL     CL  607   3.711   0.415   1.947  0.4108 -0.0172 -0.4558
   97CHL      C  608   3.565   0.310   1.996  0.0840  0.7068  0.4300
   97CHL    CL1  609   3.574   0.138   1.930  0.1258 -0.2683  0.1720
   97CHL    CL2  610   3.560   0.295   2.169 -0.2473  0.3695 -0.0275
   97CHL      H  611   3.473   0.357   1.961  0.1163 -0.0771 -0.8052
   98CHL     CL  612   3.803   1.253   2.175 -0.1147  0.2159 -0.2768
   98CHL      C  613   3.757   1.082   2.147  0.2216 -0.5286 -0.5493
   98CHL    CL1  614   3.610   1.034   2.242 -0.0478  0.1308 -0.2202
   98CHL    CL2  615   3.724   1.064   1.976  0.1670 -0.0008 -0.3202
   98CHL      H  616   3.838   1.021   2.188 -0.4942  0.0070  1.7810
   99CHL     CL  617   2.701   1.819   0.563  0.3221 -0.2142  0.1071
   99CHL      C  618   2.874   1.819   0.528  0.4620  0.4409 -0.4344
   99CHL    CL1  619   2.926   1.977   0.457  0.4774  0.3703 -0.4294
   99CHL    CL2  620   2.956   1.791   0.690  0.2013  0.1062 -0.1960
   99CHL      H  621   2.886   1.739   0.455  3.3320 -2.1011  2.5148
  100CHL     CL  622   2.963   2.550   3.318 -0.2230 -0.3035  0.1766
  100CHL      C  623   2.824   2.652   3.261 -0.3183  0.9108  0.1577
  100CHL    CL1  624   2.696   2.647   3.386  0.3192 -0.1677  0.1035
  100CHL    CL2  625   2.875   2.821   3.218  0.2843  0.1047 -0.3261
  100CHL      H  626   2.778   2.615   3.169 -3.1267  1.6566  1.1796
  101CHL     CL  627   2.367   3.482   3.706  0.0301 -0.0289 -0.3363
  101CHL      C  628   2.367   3.305   3.752 -1.1836  0.2153 -0.3657
  101CHL    CL1  629   2.201   3.253   3.796 -0.1523 -0.2065  0.1008
  101CHL    CL2  630   2.437   3.207   3.620 -0.0569 -0.0362 -0.0384
  101CHL      H  631   2.429   3.283   3.840 -0.2072  1.3241 -0.7501
  102CHL     CL  632   0.203   0.403   0.790  0.3737  0.3670  0.1818
  102CHL      C  633   0.069   0.327   0.891  0.8135  0.5800 -0.4494
  102CHL    CL1  634   0.145   0.231   1.025 -0.2855 -0.4856 -0.3649
  102CHL    CL2  635  -0.028   0.457   0.970  0.1248  0.1577 -0.3271
  102CHL      H  636   0.003   0.261   0.834 -1.4241  0.4575  2.0693
  103CHL     CL  637   2.786   3.120   3.375  0.7941 -0.2909  0.1284
  103CHL      C  638   2.908   3.109   3.504  0.4166 -0.5654  0.3604
  103CHL    CL1  639   2.839   3.134   3.655  0.4007 -0.3444  0.0350
  103CHL    CL2  640   2.966   2.942   3.503  0.3683 -0.1372 -0.0370
  103CHL      H  641   2.995   3.170   3.476  0.1924 -0.4762 -0.1448
  104CHL     CL  642   2.119   0.870   3.265  0.0750 -0.3921  0.0605
  104CHL      C  643   2.106   0.746   3.139 -0.3651 -0.0938  0.5943
  104CHL    CL1  644   1.974   0.783   3.023  0.4529  0.0735  0.4784
  104CHL    CL2  645   2.244   0.740   3.031  0.2857 -0.1097 -0.0419
  104CHL      H  646   2.084   0.645   3.175  2.3672 -0.6249  0.9942
  105CHL     CL  647   1.510   0.771   2.945  0.0911  0.4486 -0.0247
  105CHL      C  648   1.587   0.806   3.105 -0.1267  0.3124  0.6424
  105CHL    CL1  649   1.456   0.866   3.218 -0.3752  0.5871  0.2612
  105CHL    CL2  650   1.674   0.656   3.170  0.0749 -0.4313  0.2766
  105CHL      H  651   1.659   0.887   3.093 -0.8514  0.7257 -1.4904
  106CHL     CL  652   2.843   3.098   0.639 -0.4551 -0.3974 -0.1789
  106CHL      C  653   2.961   3.242   0.649 -0.7534  0.6321  0.0302
  106CHL    CL1  654   2.894   3.379   0.556 -0.0842 -0.4176 -0.2358
  106CHL    CL2  655   2.995   3.279   0.816  0.4096 -0.2500  0.0404
  106CHL      H  656   3.060   3.216   0.610 -1.0489 -0.0669 -0.2767
  107CHL     CL  657   2.354   1.174   3.077 -0.2621 -0.1989 -0.1726
  107CHL      C  658   2.289   1.298   2.960 -0.1763 -0.4515 -0.0062
  107CHL    CL1  659   2.219   1.403   3.075 -0.3085  0.0734  0.4357
  107CHL    CL2  660   2.428   1.371   2.872 -0.5045 -0.0228  0.1745
  107CHL      H  661   2.216   1.252   2.893 -1.8319  2.1743 -0.1549
  108CHL     CL  662   2.784   2.487   2.318 -0.0924  0.3099 -0.1938
  108CHL      C  663   2.717   2.636   2.391 -0.2679  0.3750 -0.8505
  108CHL    CL1  664   2.724   2.771   2.270 -0.2250 -0.0219  0.0332
  108CHL    CL2  665   2.538   2.614   2.450  0.0035 -0.0141 -0.4512
  108CHL      H  666   2.781   2.660   2.476  0.9299 -1.2939 -1.2240
  109CHL     CL  667   2.268   2.200   2.289  0.0921  0.4016  0.0672
  109CHL      C  668   2.435   2.267   2.260 -0.1595  0.4128  1.0870
  109CHL    CL1  669   2.546   2.161   2.157 -0.1779  0.0981 -0.2697
  109CHL    CL2  670   2.415   2.438   2.177 -0.2984  0.2308 -0.2826
  109CHL      H  671   2.482   2.278   2.358  2.0844 -0.4394  0.1655
  110CHL     CL  672   3.055   1.512   0.137 -0.6117 -0.0844 -0.0871
  110CHL      C  673   3.205   1.429   0.111 -0.1299  0.2211 -0.7627
  110CHL    CL1  674   3.321   1.532   0.036  0.0571 -0.3230  0.1179
  110CHL    CL2  675   3.267   1.363   0.273 -0.1481  0.2256  0.0933
  110CHL      H  676   3.188   1.345   0.042  0.6215  0.2165 -0.9462
  111CHL     CL  677   1.031   2.528   1.263  0.1643  0.0073  0.0388
  111CHL      C  678   1.137   2.667   1.281  0.3325 -0.5359 -0.7115
  111CHL    CL1  679   1.044   2.812   1.281 -0.1248 -0.1854 -0.4037
  111CHL    CL2  680   1.226   2.641   1.442  0.0049  0.2931 -0.1746
  111CHL      H  681   1.210   2.657   1.199 -0.2431 -0.3206 -1.2569
  112CHL     CL  682   3.442   2.223   0.707  0.1912 -0.4359  0.0364
  112CHL      C  683   3.445   2.366   0.821  0.0075 -0.5307  0.0771
  112CHL    CL1  684   3.585   2.483   0.775  0.1670  0.2755  0.1402
  112CHL    CL2  685   3.284   2.452   0.818 -0.3790  0.4804 -0.4958
  112CHL      H  686   3.466   2.340   0.925  0.4411  1.8933  0.6730
  113CHL     CL  687   3.433   1.299   2.044  0.1427 -0.0423  0.0582
  113CHL      C  688   3.276   1.283   2.141 -0.1684  0.6789  0.7775
  113CHL    CL1  689   3.315   1.260   2.315 -0.0351 -0.0357 -0.2980
  113CHL    CL2  690   3.159   1.419   2.101 -0.1670 -0.0540 -0.1607
  113CHL      H  691   3.228   1.189   2.110  0.5251  0.4413  0.4143
  114CHL     CL  692   0.561   0.275   0.992 -0.3245 -0.3716 -0.1246
  114CHL      C  693   0.707   0.360   1.071 -0.4607  0.0776 -0.4220
  114CHL    CL1  694   0.832   0.227   1.111 -0.0078  0.2913 -0.1167
  114CHL    CL2  695   0.767   0.492   0.969  0.3240  0.7441  0.1547
  114CHL      H  696   0.671   0.392   1.170  0.4813 -0.5667  0.1432
  115CHL     CL  697   2.320   1.725   2.380 -0.0323 -0.2349 -0.0628
  115CHL      C  698   2.420   1.804   2.516 -0.1811 -0.2382 -0.0507
  115CHL    CL1  699   2.471   1.686   2.639 -0.0336 -0.5491 -0.5039
  115CHL    CL2  700   2.567   1.896   2.461  0.2148 -0.1256  0.3307
  115CHL      H  701   2.355   1.877   2.566 -0.0528 -1.4178  1.9649
  116CHL     CL  702   0.785   0.633   3.457 -0.0721 -0.3057  0.0471
  116CHL      C  703   0.748   0.575   3.623  0.1539 -0.3503 -0.3905
  116CHL    CL1  704   0.829   0.689   3.750  0.3257 -0.1558 -0.0209
  116CHL    CL2  705   0.564   0.569   3.653  0.1004 -0.4354  0.0947
  116CHL      H  706   0.801   0.481   3.640  2.0618  0.6771 -0.2354
  117CHL     CL  707   1.624   2.732   0.111  0.2816 -0.1720 -0.2838
  117CHL      C  708   1.597   2.911   0.093  0.2305  0.4909  0.6336
  117CHL    CL1  709   1.602   2.974  -0.076  0.1162 -0.0389  0.2177
  117CHL    CL2  710   1.434   2.946   0.158  0.5778  0.1999  0.0989
  117CHL      H  711   1.674   2.955   0.158 -0.7632 -0.2998  2.4044
  118CHL     CL  712   0.736   1.130   2.349  0.2482 -0.6187 -0.6371
  118CHL      C  713   0.685   0.960   2.365  0.0489 -0.2140  0.4110
  118CHL    CL1  714   0.523   0.946   2.438 -0.4687 -0.1629  0.0431
  118CHL    CL2  715   0.666   0.890   2.202 -0.0879 -0.1218 -0.3022
  118CHL      H  716   0.760   0.905   2.423  0.1703  0.7022  1.1579
  119CHL     CL  717   0.855   3.107   0.796 -0.0251 -0.5388 -0.2776
  119CHL      C  718   0.748   3.157   0.929 -0.6365  0.2882  0.1191
  119CHL    CL1  719   0.838   3.141   1.082 -0.0229 -0.3633  0.1619
  119CHL    CL2  720   0.691   3.328   0.913 -0.3316  0.2971  0.1274
  119CHL      H  721   0.668   3.082   0.936  0.3304 -0.6398  1.9003
  120CHL     CL  722   0.931   1.833   2.451 -0.6543 -0.4935 -0.3835
  120CHL      C  723   1.039   1.950   2.535 -0.4778  0.0992  0.4112
  120CHL    CL1  724   1.181   1.860   2.606  0.1977 -0.0142  0.0148
  120CHL    CL2  725   1.090   2.089   2.439 -0.2020 -0.3795  0.2891
  120CHL      H  726   0.978   1.989   2.618 -2.6828 -2.1302 -0.0376
  121CHL     CL  727   0.065   3.654   2.971 -0.2155  0.4092 -0.1590
  121CHL      C  728   0.199   3.535   2.999  0.0284 -0.4716 -1.0738
  121CHL    CL1  729   0.204   3.439   2.857  0.0077 -0.0186 -0.0310
  121CHL    CL2  730   0.352   3.619   3.024 -0.2049 -0.3280  0.0838
  121CHL      H  731   0.167   3.476   3.086 -0.2638 -0.5320 -1.2200
  122CHL     CL  732   0.954   1.008   0.155  0.2694 -0.6044  0.2566
  122CHL      C  733   1.075   1.106   0.242 -0.6453  0.0878  0.8306
  122CHL    CL1  734   1.135   1.236   0.137  0.1771  0.2795  0.3357
  122CHL    CL2  735   1.011   1.172   0.403  0.1269  0.1293  0.2463
  122CHL      H  736   1.157   1.037   0.262 -1.5193 -1.2842 -0.1347
  123CHL     CL  737   2.451   2.341   3.608 -0.3722  0.4422  0.1463
  123CHL      C  738   2.310   2.242   3.669 -0.2430  0.8119  0.8569
  123CHL    CL1  739   2.156   2.334   3.661  0.0033 -0.0657  0.2085
  123CHL    CL2  740   2.297   2.085   3.580 -0.5074  0.2166 -0.0892
  123CHL      H  741   2.323   2.202   3.770  1.2353 -0.8709  0.0623
  124CHL     CL  742   3.127   3.668   0.499 -0.2952  0.3316  0.0482
  124CHL      C  743   3.263   3.549   0.462  0.9012  0.3579 -0.4312
  124CHL    CL1  744   3.329   3.462   0.613 -0.1333  0.2271  0.1277
  124CHL    CL2  745   3.205   3.435   0.336  0.5512 -0.5111 -0.1372
  124CHL      H  746   3.338   3.607   0.406  0.1676 -0.2877 -2.1503
  125CHL     CL  747   2.498   0.833   1.551  0.2461 -0.2015 -0.1215
  125CHL      C  748   2.471   0.926   1.704 -0.1061  0.0699 -0.2273
  125CHL    CL1  749   2.291   0.933   1.741 -0.0719 -0.1154  0.4850
  125CHL    CL2  750   2.557   0.860   1.846 -0.3755 -0.5968  0.0736
  125CHL      H  751   2.508   1.028   1.692 -0.4568  0.1017 -1.1500
  126CHL     CL  752   3.181   3.481   1.377 -0.2005  0.0964  0.0499
  126CHL      C  753   3.122   3.406   1.537 -0.9099 -0.2622 -0.4923
  126CHL    CL1  754   3.155   3.232   1.547 -0.3985 -0.1069 -0.2340
  126CHL    CL2  755   3.182   3.496   1.683  0.1846  0.0367 -0.0501
  126CHL      H  756   3.013   3.414   1.535 -1.0499 -0.2059  2.4834
  127CHL     CL  757   0.143   1.915   0.588  0.1572  0.0829 -0.1011
  127CHL      C  758   0.162   1.912   0.410 -0.3871  0.3068  0.3176
  127CHL    CL1  759   0.076   1.767   0.349 -0.3424  0.1105 -0.3290
  127CHL    CL2  760   0.107   2.064   0.333 -0.3189  0.0167 -0.1578
  127CHL      H  761   0.267   1.888   0.390 -0.7414 -1.8922  0.8685
  128CHL     CL  762   1.718   3.740   1.959  0.2034  0.6910  0.6658
  128CHL      C  763   1.583   3.843   1.906 -1.2773  0.3517 -0.2685
  128CHL    CL1  764   1.435   3.747   1.933 -0.0518  0.0662 -0.2256
  128CHL    CL2  765   1.578   4.000   1.991  0.1976  0.0971 -0.0046
  128CHL      H  766   1.588   3.865   1.799  0.8349 -0.5962 -0.4144
  129CHL     CL  767   1.518   3.511   0.535 -0.3451 -0.0212 -0.2917
  129CHL      C  768   1.590   3.639   0.632 -0.4811  0.2179 -0.3883
  129CHL    CL1  769   1.572   3.600   0.807 -0.1519 -0.1279  0.1785
  129CHL    CL2  770   1.760   3.649   0.572 -0.6068  0.4734 -0.0259
  129CHL      H  771   1.531   3.730   0.614 -1.1975 -0.4094 -1.3439
  130CHL     CL  772   0.455   1.737   2.383 -0.2676 -0.1284 -0.0162
  130CHL      C  773   0.529   1.628   2.506  0.5028 -0.1729  0.0507
  130CHL    CL1  774   0.391   1.592   2.625  0.1061  0.1031  0.1620
  130CHL    CL2  775   0.605   1.486   2.443 -0.2330  0.4604  0.1072
  130CHL      H  776   0.614   1.668   2.562  1.6860 -2.5842  0.1244
  131CHL     CL  777   2.836   3.451   2.231 -0.4616  0.0449  0.2930
  131CHL      C  778   2.889   3.290   2.175 -0.1478 -0.2160 -0.1311
  131CHL    CL1  779   3.009   3.237   2.287  0.0918 -0.0154  0.0057
  131CHL    CL2  780   2.741   3.180   2.158 -0.0184  0.1351 -0.0103
  131CHL      H  781   2.945   3.301   2.081  0.5477 -0.2967  0.2702
  132CHL     CL  782   3.174   2.743   2.811 -0.2025 -0.4365 -0.0632
  132CHL      C  783   3.071   2.607   2.826 -0.0544  0.2781  1.1808
  132CHL    CL1  784   3.144   2.473   2.935  0.2847 -0.1643  0.2235
  132CHL    CL2  785   2.908   2.653   2.869  0.0508  0.3591 -0.0343
  132CHL      H  786   3.059   2.567   2.724  1.6063  1.7159  0.3683
  133CHL     CL  787   2.028   1.395   3.445 -0.0701 -0.4583 -0.2547
  133CHL      C  788   2.179   1.292   3.457 -0.6287  0.3515  0.5457
  133CHL    CL1  789   2.321   1.366   3.372  0.2953  0.4557  0.0133
  133CHL    CL2  790   2.206   1.257   3.637  0.2358 -0.0387  0.1171
  133CHL      H  791   2.152   1.196   3.412 -0.4702 -0.6580  2.5291
  134CHL     CL  792   1.147   1.800   0.814 -0.0450 -0.2031  0.2114
  134CHL      C  793   1.169   1.626   0.825 -0.1325  0.2302  0.6501
  134CHL    CL1  794   1.011   1.547   0.845 -0.0608 -0.6112  0.0154
  134CHL    CL2  795   1.229   1.570   0.667 -0.1141 -0.4525 -0.1384
  134CHL      H  796   1.236   1.604   0.909 -1.6525 -0.2523  1.7865
  135CHL     CL  797   1.011   1.923   1.787  0.2067 -0.0976  0.3135
  135CHL      C  798   1.178   1.959   1.811  0.2163 -0.5830  0.4368
  135CHL    CL1  799   1.283   1.807   1.785 -0.3587  0.3805 -0.3073
  135CHL    CL2  800   1.247   2.097   1.700 -0.0920 -0.4442 -0.1096
  135CHL      H  801   1.188   1.997   1.914  0.7159  1.1400 -0.2228
  136CHL     CL  802   1.653   3.614   2.500  0.0086  0.0590 -0.0280
  136CHL      C  803   1.693   3.593   2.672 -0.6185 -0.2256 -0.0458
  136CHL    CL1  804   1.722   3.413   2.697 -0.2826  0.1991  0.3261
  136CHL    CL2  805   1.835   3.694   2.729  0.0221 -0.1799  0.1110
  136CHL      H  806   1.602   3.623   2.725 -1.5323 -0.9180 -1.1491
  137CHL     CL  807   3.348   0.592   3.342  0.0066 -0.2976 -0.2231
  137CHL      C  808   3.351   0.554   3.171  0.0102 -0.0293  0.0544
  137CHL    CL1  809   3.531   0.569   3.116  0.0362  0.1918  0.1211
  137CHL    CL2  810   3.303   0.386   3.135 -0.1475 -0.4723  0.0141
  137CHL      H  811   3.297   0.623   3.106  1.7041  1.3529  0.0156
  138CHL     CL  812   0.787   0.023   3.143 -0.3440 -0.0410 -0.1870
  138CHL      C  813   0.956  -0.031   3.097 -0.0867 -0.6815  0.3785
  138CHL    CL1  814   1.078   0.077   3.176 -0.1990  0.6896  0.1407
  138CHL    CL2  815   0.979  -0.204   3.152 -0.1464 -0.0269  0.4384
  138CHL      H  816   0.977  -0.018   2.990  0.8344 -1.1217  0.4973
  139CHL     CL  817   1.765   2.952   2.793 -0.4531 -0.1445 -0.0721
  139CHL      C  818   1.855   2.948   2.952  0.3066 -0.4712  0.2264
  139CHL    CL1  819   1.799   3.082   3.057  0.0281 -0.0571  0.4126
  139CHL    CL2  820   1.828   2.791   3.035 -0.4734 -0.3789 -0.0750
  139CHL      H  821   1.961   2.962   2.932 -0.0997  1.8814 -0.5961
  140CHL     CL  822   2.370   0.963   1.251 -0.2340  0.2400  0.8091
  140CHL      C  823   2.427   1.128   1.278  0.1315  0.1027 -0.1119
  140CHL    CL1  824   2.585   1.125   1.381  0.5870 -0.0545  0.5319
  140CHL    CL2  825   2.447   1.223   1.129 -0.0395 -0.1209  0.0686
  140CHL      H  826   2.350   1.173   1.342 -0.6197  0.6176 -1.3430
  141CHL     CL  827   3.756   1.463   0.502  0.0391  0.1528 -0.2847
  141CHL      C  828   3.659   1.323   0.554  0.0963 -0.2302 -0.6140
  141CHL    CL1  829   3.520   1.381   0.648  0.0453 -0.3420 -0.2158
  141CHL    CL2  830   3.593   1.232   0.412  0.1252  0.1215 -0.0353
  141CHL      H  831   3.718   1.258   0.620  1.9909  1.4046 -0.5993
  142CHL     CL  832   0.598   0.295   2.532  0.3076  0.1619 -0.0626
  142CHL      C  833   0.441   0.352   2.480 -0.5917 -0.8283 -0.4631
  142CHL    CL1  834   0.425   0.526   2.422  0.5903  0.4047  0.1874
  142CHL    CL2  835   0.372   0.238   2.361  0.2873 -0.5526 -0.2851
  142CHL      H  836   0.377   0.342   2.568  0.1973 -1.0542  0.1020
  143CHL     CL  837   1.669   2.810   1.211  0.3226 -0.0344  0.1865
  143CHL      C  838   1.787   2.933   1.283 -0.1948  0.6976  0.1978
  143CHL    CL1  839   1.935   2.950   1.171 -0.0935 -0.1220  0.2492
  143CHL    CL2  840   1.703   3.096   1.316  0.4358 -0.1207 -0.0376
  143CHL      H  841   1.831   2.890   1.374 -0.6171 -0.1836 -0.0030
  144CHL     CL  842   1.469   0.914   2.260  0.0023 -0.1287 -0.0710
  144CHL      C  843   1.490   0.773   2.155 -0.1104 -0.5165  0.6315
  144CHL    CL1  844   1.339   0.741   2.067  0.1245 -0.1189  0.2337
  144CHL    CL2  845   1.603   0.819   2.030  0.1956 -0.1179 -0.2566
  144CHL      H  846   1.527   0.690   2.216  1.9583  0.5557  0.9336
  145CHL     CL  847   2.171   0.953   0.662 -0.1378  0.6841  0.5413
  145CHL      C  848   2.158   0.860   0.818 -0.3526 -0.4033  1.0464
  145CHL    CL1  849   2.122   0.686   0.779  0.2417 -0.0232 -0.0997
  145CHL    CL2  850   2.317   0.875   0.900  0.3878  0.4733 -0.3425
  145CHL      H  851   2.082   0.916   0.874 -0.4030  1.4238 -0.7263
  146CHL     CL  852   2.202   1.695   0.290 -0.0954 -0.1073  0.0803
  146CHL      C  853   2.134   1.530   0.314  0.3311  0.4251 -0.0932
  146CHL    CL1  854   1.954   1.536   0.322 -0.0671  0.0526 -0.2453
  146CHL    CL2  855   2.174   1.419   0.178 -0.5256  0.0723  0.2650
  146CHL      H  856   2.182   1.489   0.404  0.7831  2.4876  0.6636
  147CHL     CL  857   1.984   1.970   2.290 -0.1732 -0.1611  0.2384
  147CHL      C  858   1.812   2.016   2.255 -0.0307  0.1680 -0.1296
  147CHL    CL1  859   1.766   1.955   2.088 -0.2063 -0.0654 -0.4255
  147CHL    CL2  860   1.709   1.937   2.385  0.4473 -0.0507 -0.0621
  147CHL      H  861   1.798   2.124   2.248 -0.0185  0.2219  0.6138
  148CHL     CL  862   3.806   1.314   0.993  0.3597  0.1446  0.1377
  148CHL      C  863   3.976   1.278   1.046 -0.1150  0.0538 -0.7755
  148CHL    CL1  864   3.984   1.268   1.226 -0.1777  0.0651 -0.8852
  148CHL    CL2  865   4.028   1.126   0.968 -0.1330 -0.4601 -0.2663
  148CHL      H  866   4.037   1.359   1.003  1.1689 -1.4729 -1.9388
  149CHL     CL  867   1.512   0.269   3.196 -0.3252 -0.0026 -0.1155
  149CHL      C  868   1.592   0.099   3.176  0.2770 -0.6223 -0.0070
  149CHL    CL1  869   1.578   0.052   3.004 -0.1857 -0.1711  0.1063
  149CHL    CL2  870   1.766   0.113   3.240  0.4486 -0.0798  0.2661
  149CHL      H  871   1.535   0.028   3.237  0.8239 -0.1696  1.0670
  150CHL     CL  872   3.164   2.097   2.927  0.2077  0.0236 -0.2110
  150CHL      C  873   3.141   1.979   3.063  0.0765  0.7838 -0.0160
  150CHL    CL1  874   3.090   1.811   3.002  0.5926  0.3552 -0.3994
  150CHL    CL2  875   3.295   1.966   3.150  0.2676 -0.1529  0.0413
  150CHL      H  876   3.061   2.019   3.127  1.3987 -0.8915  2.9118
  151CHL     CL  877   3.107   1.016   1.310  0.1736  0.2774 -0.3098
  151CHL      C  878   3.054   0.924   1.456  0.4741 -0.0328 -0.5286
  151CHL    CL1  879   2.974   1.045   1.562 -0.1279 -0.2543 -0.1397
  151CHL    CL2  880   2.950   0.776   1.413  0.1266 -0.1306 -0.0505
  151CHL      H  881   3.137   0.878   1.510 -0.7364 -0.7291  0.8097
  152CHL     CL  882   0.769   2.851   1.916 -0.1416 -0.0424  0.2644
  152CHL      C  883   0.904   2.738   1.889 -0.7633  0.1560  0.3773
  152CHL    CL1  884   0.886   2.596   1.993  0.3742 -0.1026 -0.5851
  152CHL    CL2  885   0.921   2.686   1.723  0.0615 -0.4476 -0.0412
  152CHL      H  886   0.996   2.791   1.916 -1.0722  0.5660  0.6460
  153CHL     CL  887   1.068   2.800   2.541 -0.2971 -0.0662 -0.0530
  153CHL      C  888   1.099   2.628   2.509 -1.1244  0.1628 -0.4657
  153CHL    CL1  889   1.273   2.609   2.507 -0.4565  0.0641 -0.0231
  153CHL    CL2  890   1.011   2.518   2.625  0.0005  0.7219 -0.2119
  153CHL      H  891   1.066   2.616   2.405  0.4584  2.3927 -1.3157
  154CHL     CL  892   3.355   0.952   0.511 -0.1831 -0.3582 -0.1324
  154CHL      C  893   3.343   0.809   0.619 -0.3500 -0.2204  0.1506
  154CHL    CL1  894   3.173   0.788   0.650 -0.2201 -0.0423 -0.0505
  154CHL    CL2  895   3.406   0.667   0.521  0.2698  0.2872 -0.1399
  154CHL      H  896   3.394   0.819   0.715 -0.8381  1.6093  0.2604
  155CHL     CL  897   0.558   2.765   2.591 -0.3481 -0.0254 -0.1618
  155CHL      C  898   0.593   2.679   2.424  0.6762 -0.1566 -0.3377
  155CHL    CL1  899   0.756   2.722   2.370 -0.4041  0.1683 -0.5474
  155CHL    CL2  900   0.578   2.501   2.436 -0.1141  0.3525 -0.1762
  155CHL      H  901   0.522   2.730   2.358  2.3023  2.7180 -0.0455
  156CHL     CL  902   0.411   0.633   2.074  0.1946  0.2006  0.0248
  156CHL      C  903   0.228   0.623   2.055  0.4265 -0.2479 -0.2036
  156CHL    CL1  904   0.148   0.525   2.179  0.1874  0.2674  0.1590
  156CHL    CL2  905   0.166   0.794   2.064 -0.1666  0.0686 -0.0497
  156CHL      H  906   0.206   0.592   1.953  0.6749 -0.0362 -0.3241
  157CHL     CL  907   0.894   2.963   3.294  1.1682 -0.0222  0.2241
  157CHL      C  908   1.054   3.005   3.364 -0.1886 -0.2412 -0.3312
  157CHL    CL1  909   1.180   2.961   3.241 -0.2426  0.0362  0.1009
  157CHL    CL2  910   1.047   3.183   3.407 -0.1490  0.2413  0.0855
  157CHL      H  911   1.070   2.951   3.458  0.7417  2.9095  1.4727
  158CHL     CL  912   0.813   0.360   3.160 -0.0123 -0.0302  0.3035
  158CHL      C  913   0.629   0.323   3.161 -0.1362  0.8920 -0.7318
  158CHL    CL1  914   0.531   0.443   3.268  0.3954  0.1262 -0.2500
  158CHL    CL2  915   0.568   0.333   2.989  0.0949  0.1458 -0.4552
  158CHL      H  916   0.606   0.222   3.197  1.1164  0.3304 -1.4380
  159CHL     CL  917   2.496   1.655   1.343 -0.2027  0.2778 -0.0303
  159CHL      C  918   2.516   1.769   1.475  0.0959  0.3600  0.3600
  159CHL    CL1  919   2.378   1.750   1.602 -0.2342  0.1198  0.1495
  159CHL    CL2  920   2.672   1.724   1.557 -0.0089  0.1089 -0.0155
  159CHL      H  921   2.518   1.865   1.424 -0.0207  0.5289  0.6702
  160CHL     CL  922   0.118   2.710   3.131  0.2002 -0.1168 -0.0234
  160CHL      C  923   0.005   2.654   3.263  0.2448 -0.4176  1.1700
  160CHL    CL1  924   0.092   2.528   3.353 -0.0093 -0.1681  0.2029
  160CHL    CL2  925  -0.027   2.790   3.382  0.9973  0.2784 -0.1564
  160CHL      H  926  -0.090   2.632   3.215  0.9353 -0.5211 -0.2092
  161CHL     CL  927   3.393   2.399   2.554 -0.0813  0.1613 -0.3395
  161CHL      C  928   3.276   2.259   2.515 -0.8233 -0.0140 -0.8817
  161CHL    CL1  929   3.364   2.090   2.548 -0.2909 -0.4005  0.2939
  161CHL    CL2  930   3.142   2.274   2.637 -0.4528  0.3162 -0.0488
  161CHL      H  931   3.246   2.269   2.410 -0.7569 -1.4984 -1.0711
  162CHL     CL  932   2.585   2.979   1.228 -0.0118  0.3291  0.2009
  162CHL      C  933   2.758   3.016   1.234  0.6696  0.0775  0.0806
  162CHL    CL1  934   2.805   3.113   1.083 -0.1667  0.3418  0.1732
  162CHL    CL2  935   2.780   3.114   1.393  0.0110  0.1302  0.1059
  162CHL      H  936   2.825   2.930   1.224 -0.2812 -0.6710  0.0242
  163CHL     CL  937   1.678   1.295   2.423  0.0993  0.5553  0.2079
  163CHL      C  938   1.587   1.446   2.476  0.0226  0.0620 -0.3235
  163CHL    CL1  939   1.592   1.471   2.655 -0.1829  0.1851  0.7392
  163CHL    CL2  940   1.640   1.595   2.385 -0.2724  0.1298  0.2951
  163CHL      H  941   1.486   1.425   2.441  0.4457  0.1568 -1.6706
  164CHL     CL  942   3.260   1.886   0.312 -0.3190 -0.3093  0.1694
  164CHL      C  943   3.433   1.845   0.359 -0.0043  0.3643 -0.0383
  164CHL    CL1  944   3.430   1.674   0.402 -0.1053 -0.1107  0.1566
  164CHL    CL2  945   3.558   1.891   0.224 -0.1495 -0.2106 -0.0719
  164CHL      H  946   3.445   1.902   0.452 -0.8487 -0.2357  0.4489
  165CHL     CL  947   2.094   3.791   0.185  0.1233 -0.3437 -0.0386
  165CHL      C  948   2.140   3.827   0.015 -0.5288 -0.5555  0.5953
  165CHL    CL1  949   2.045   3.732  -0.109  0.2391 -0.0915  0.1204
  165CHL    CL2  950   2.109   4.000  -0.021 -0.4253 -0.3449 -0.3939
  165CHL      H  951   2.248   3.815   0.002 -0.6457 -0.4856 -0.5164
  166CHL     CL  952   1.785   1.537   3.678  0.4541  0.1276  0.1691
  166CHL      C  953   1.688   1.527   3.820  0.0032  0.5552 -0.6338
  166CHL    CL1  954   1.730   1.674   3.921 -0.1611  0.5964 -0.2654
  166CHL    CL2  955   1.509   1.532   3.780  0.0153  0.1050 -0.3335
  166CHL      H  956   1.714   1.440   3.880  1.2679  1.7212  0.5652
  167CHL     CL  957   2.052   2.121   1.054  0.0092  0.6315 -0.0373
  167CHL      C  958   2.043   1.952   1.131  0.1703  0.5857  0.2261
  167CHL    CL1  959   2.078   1.836   1.000 -0.3380 -0.0780 -0.0352
  167CHL    CL2  960   2.158   1.930   1.270 -0.0704 -0.1994 -0.0997
  167CHL      H  961   1.939   1.946   1.165  0.2147  1.7338  0.6230
  168CHL     CL  962   0.115   2.056   1.028  0.3426 -0.1232 -0.1475
  168CHL      C  963   0.085   2.201   0.928  0.0795  0.0792  0.1762
  168CHL    CL1  964  -0.043   2.150   0.810  0.0838 -0.1121  0.3367
  168CHL    CL2  965   0.026   2.336   1.026 -0.3408 -0.0740  0.0321
  168CHL      H  966   0.172   2.235   0.871 -0.7036  1.1873 -0.3778
  169CHL     CL  967   2.228   0.921   3.686 -0.1452 -0.1848 -0.3115
  169CHL      C  968   2.350   0.973   3.809  0.1432  0.0872  0.4242
  169CHL    CL1  969   2.262   1.013   3.964  0.0052  0.2064  0.4396
  169CHL    CL2  970   2.481   0.845   3.838 -0.0642  0.1608  0.4905
  169CHL      H  971   2.395   1.063   3.767 -0.7103  1.4300  2.2190
  170CHL     CL  972   2.709   2.776   1.567  0.0453  0.1640  0.2068
  170CHL      C  973   2.711   2.634   1.457  0.4211 -0.2206  0.0322
  170CHL    CL1  974   2.554   2.617   1.380  0.2487  0.0736 -0.1399
  170CHL    CL2  975   2.832   2.664   1.330 -0.3566  0.1914  0.1557
  170CHL      H  976   2.738   2.542   1.510  0.7866 -0.4847 -0.5994
  171CHL     CL  977   0.124   1.481   3.752  0.0694  0.3627  0.1124
  171CHL      C  978   0.038   1.455   3.909 -0.2087  0.1810 -0.5436
  171CHL    CL1  979  -0.133   1.499   3.883  0.0713  0.1384  0.0464
  171CHL    CL2  980   0.039   1.287   3.966 -0.3605  0.2006  0.4078
  171CHL      H  981   0.076   1.526   3.984 -0.0307 -0.4986  0.0189
  172CHL     CL  982   1.835   1.059   1.139 -0.3178  0.0906  0.3411
  172CHL      C  983   1.769   1.144   0.994  0.9927  0.8216 -0.7407
  172CHL    CL1  984   1.897   1.163   0.865  0.1010 -0.4067  0.2127
  172CHL    CL2  985   1.619   1.067   0.936 -0.0686 -0.0206  0.0516
  172CHL      H  986   1.743   1.246   1.024  1.4581  0.6678  0.1911
  173CHL     CL  987   1.584   1.726   2.912 -0.0618  0.2873 -0.1031
  173CHL      C  988   1.651   1.815   2.770  0.4742  0.6781 -0.0373
  173CHL    CL1  989   1.532   1.941   2.712  0.0423  0.4202  0.2392
  173CHL    CL2  990   1.789   1.904   2.827 -0.0622  0.1372  0.0007
  173CHL      H  991   1.688   1.751   2.689  1.2293 -1.1080  1.6454
  174CHL     CL  992   0.756   0.064   2.774  0.4032  0.0967  0.1152
  174CHL      C  993   0.888   0.161   2.717  0.3797 -0.2114  0.2732
  174CHL    CL1  994   0.888   0.138   2.544  0.2909  0.4850  0.2817
  174CHL    CL2  995   0.839   0.322   2.761 -0.2004 -0.3187 -0.2531
  174CHL      H  996   0.987   0.130   2.753  1.4648  0.7317 -1.7511
  175CHL     CL  997   2.442   2.154   2.997 -0.3254  0.0132  0.0882
  175CHL      C  998   2.380   2.163   3.155  0.9195 -0.1650 -0.1328
  175CHL    CL1  999   2.419   2.314   3.252  0.1483  0.1078 -0.1589
  175CHL    CL2 1000   2.195   2.157   3.141  0.1098  0.1804  0.0685
  175CHL      H 1001   2.417   2.076   3.211  1.0958  1.0385  1.7015
  176CHL     CL 1002   3.108   2.158   1.582  0.2015  0.0233 -0.2110
  176CHL      C 1003   3.041   2.264   1.454 -0.0965 -0.1923  0.3235
  176CHL    CL1 1004   2.863   2.256   1.431  0.2369  0.0536  0.1405
  176CHL    CL2 1005   3.097   2.440   1.460 -0.0909  0.0301 -0.0785
  176CHL      H 1006   3.080   2.231   1.356 -4.5015 -2.2631 -1.0215
  177CHL     CL 1007   2.474   0.429   0.941 -0.3941  0.1949  0.2307
  177CHL      C 1008   2.417   0.536   1.077 -0.6779 -0.2584 -0.0421
  177CHL    CL1 1009   2.334   0.437   1.202 -0.3929 -0.3337 -0.0585
  177CHL    CL2 1010   2.555   0.624   1.153 -0.3229  0.0809 -0.0181
  177CHL      H 1011   2.337   0.601   1.039 -1.0284 -1.4817 -1.5059
  178CHL     CL 1012   3.634   3.769   2.432 -0.1540  0.8570  0.3240
  178CHL      C 1013   3.745   3.747   2.578 -0.6007  0.3655  0.2896
  178CHL    CL1 1014   3.723   3.577   2.654  0.3358 -0.1562  0.3438
  178CHL    CL2 1015   3.919   3.765   2.531 -0.5776 -0.0190  0.0616
  178CHL      H 1016   3.719   3.818   2.656  0.2899  0.9152  0.1002
  179CHL     CL 1017   1.235   2.403   0.961  0.1671  0.1162  0.0466
  179CHL      C 1018   1.159   2.516   0.852  0.5175  0.2071 -0.9657
  179CHL    CL1 1019   0.974   2.494   0.844  0.2753 -0.0596  0.5389
  179CHL    CL2 1020   1.180   2.686   0.910 -0.1124 -0.0813  0.0960
  179CHL      H 1021   1.204   2.502   0.754  1.1737 -2.5289 -0.3486
  180CHL     CL 1022   3.297   2.834   2.215 -0.0753 -0.3938  0.1766
  180CHL      C 1023   3.231   2.809   2.383 -0.2243 -0.4073  0.0153
  180CHL    CL1 1024   3.123   2.947   2.434 -0.6963 -0.4930 -0.2248
  180CHL    CL2 1025   3.128   2.662   2.380  0.1736  0.4599 -0.0265
  180CHL      H 1026   3.311   2.800   2.458 -0.3698  1.3359  0.4293
  181CHL     CL 1027   0.280   0.795   3.701 -0.0232 -0.0797 -0.1242
  181CHL      C 1028   0.201   0.802   3.860 -0.4999  0.8965 -0.1102
  181CHL    CL1 1029   0.064   0.691   3.878 -0.1671  0.0760  0.2251
  181CHL    CL2 1030   0.331   0.755   3.987 -0.1794 -0.2905 -0.0706
  181CHL      H 1031   0.159   0.901   3.884  2.2229  2.0676  0.2774
  182CHL     CL 1032   0.145   0.506   3.442  0.0443  0.3803 -0.2734
  182CHL      C 1033  -0.025   0.527   3.385  0.2693  0.1904  0.0664
  182CHL    CL1 1034  -0.135   0.406   3.454 -0.0888 -0.4001  0.0155
  182CHL    CL2 1035  -0.091   0.700   3.416  0.1013  0.0792 -0.1208
  182CHL      H 1036  -0.032   0.508   3.277 -3.4034  1.5009 -0.0954
  183CHL     CL 1037   0.313   0.184   3.282 -0.5574 -0.2308  0.0272
  183CHL      C 1038   0.334   0.106   3.448  0.5483  0.0789 -0.0070
  183CHL    CL1 1039   0.475   0.013   3.448  0.0785 -0.3227 -0.0570
  183CHL    CL2 1040   0.348   0.221   3.587  0.4401 -0.0679  0.3112
  183CHL      H 1041   0.248   0.040   3.459  0.8014  0.1400  3.3822
  184CHL     CL 1042   3.582   2.344   1.306 -0.0499  0.4763 -0.3467
  184CHL      C 1043   3.500   2.180   1.274 -0.1862  0.2860 -0.8333
  184CHL    CL1 1044   3.352   2.204   1.170  0.0850 -0.0970 -0.0948
  184CHL    CL2 1045   3.613   2.073   1.178  0.2408  0.0358 -0.1480
  184CHL      H 1046   3.464   2.141   1.370 -1.7634  1.6148 -0.8296
  185CHL     CL 1047   0.790   2.412   1.572  0.4598 -0.0456  0.6540
  185CHL      C 1048   0.876   2.264   1.591 -0.1225 -0.4461 -0.0107
  185CHL    CL1 1049   0.776   2.146   1.498  0.1809  0.1674 -0.2611
  185CHL    CL2 1050   1.037   2.291   1.524 -0.5567 -0.0944 -0.6127
  185CHL      H 1051   0.879   2.226   1.693  0.1571 -2.5842 -0.7554
  186CHL     CL 1052   1.716   0.332   1.348  0.2789 -0.0398  0.1934
  186CHL      C 1053   1.619   0.422   1.479 -0.1089 -0.1345 -0.0888
  186CHL    CL1 1054   1.522   0.555   1.407  0.0385 -0.0679 -0.4158
  186CHL    CL2 1055   1.498   0.304   1.562  0.2481  0.4658  0.0439
  186CHL      H 1056   1.689   0.459   1.555 -0.1934 -3.0577  1.5752
  187CHL     CL 1057   0.451   3.676   0.211  0.1291 -0.5854 -0.1513
  187CHL      C 1058   0.587   3.762   0.136  0.1443 -0.7341 -0.2078
  187CHL    CL1 1059   0.654   3.650   0.008  0.2715  0.2679  0.2215
  187CHL    CL2 1060   0.511   3.919   0.069  0.2298  0.5021  0.1801
  187CHL      H 1061   0.660   3.774   0.217 -0.9981 -0.7157  0.8505
  188CHL     CL 1062   1.142   3.047   1.017 -0.4090  0.5798  0.2821
  188CHL      C 1063   1.265   3.102   1.148 -0.2578 -0.4507  0.2031
  188CHL    CL1 1064   1.309   2.978   1.257 -0.0444  0.0534 -0.1858
  188CHL    CL2 1065   1.409   3.163   1.055 -0.2624 -0.3512  0.1002
  188CHL      H 1066   1.219   3.178   1.211  1.3470 -1.0996  2.2722
  189CHL     CL 1067   3.466   2.714   3.461  0.5400 -0.2432 -0.1352
  189CHL      C 1068   3.308   2.657   3.391  0.0094  0.1332  0.2129
  189CHL    CL1 1069   3.268   2.759   3.237  0.4006  0.2152 -0.3031
  189CHL    CL2 1070   3.337   2.486   3.360  0.1584  0.5742 -0.2477
  189CHL      H 1071   3.238   2.677   3.472  0.0387  0.0530  0.2589
  190CHL     CL 1072   1.546   1.969   3.117  0.2426 -0.1904  0.1337
  190CHL      C 1073   1.400   2.072   3.093 -0.3612 -0.5892  0.3159
  190CHL    CL1 1074   1.282   1.975   3.002  0.2353  0.4076  0.1038
  190CHL    CL2 1075   1.313   2.125   3.242 -0.4481  0.2517 -0.1491
  190CHL      H 1076   1.428   2.152   3.024  1.9320 -0.1901  1.5929
  191CHL     CL 1077   2.826   0.131   1.273 -0.1331 -0.5303  0.4094
  191CHL      C 1078   2.799   0.268   1.385  0.5639  0.4032  0.7151
  191CHL    CL1 1079   2.636   0.340   1.352 -0.1536  0.2785  0.0524
  191CHL    CL2 1080   2.800   0.196   1.548 -0.1798  0.0970  0.3713
  191CHL      H 1081   2.881   0.339   1.369  0.4620  0.6546  1.2951
  192CHL     CL 1082   0.879   0.219   0.790 -0.3255  0.2936  0.0038
  192CHL      C 1083   0.895   0.101   0.650 -0.3869 -0.1595  0.1152
  192CHL    CL1 1084   0.793   0.151   0.501 -0.1492 -0.3448 -0.0496
  192CHL    CL2 1085   1.067   0.092   0.609  0.2242 -0.0977  0.0637
  192CHL      H 1086   0.855   0.003   0.678 -0.9878  0.2632  0.7609
  193CHL     CL 1087   3.237   1.203   3.535  0.2510  0.2967  0.0999
  193CHL      C 1088   3.337   1.056   3.537  0.3602  0.1763  0.0116
  193CHL    CL1 1089   3.459   1.070   3.658  0.1757  0.4572 -0.5107
  193CHL    CL2 1090   3.243   0.909   3.574  0.1122  0.3294  0.0178
  193CHL      H 1091   3.383   1.041   3.439  0.0958 -0.4111 -0.0315
  194CHL     CL 1092   2.386   2.986   1.545  0.2264  0.3237  0.0055
  194CHL      C 1093   2.240   2.915   1.448 -0.2816  0.8374 -0.1856
  194CHL    CL1 1094   2.217   2.734   1.479 -0.2083  0.0248  0.6261
  194CHL    CL2 1095   2.089   3.004   1.492 -0.1928 -0.2105  0.1151
  194CHL      H 1096   2.251   2.915   1.339  2.6393 -2.5853 -0.0684
  195CHL     CL 1097   2.790   1.779   1.217 -0.2493 -0.1877  0.0041
  195CHL      C 1098   2.951   1.767   1.289 -0.3282  0.2466 -0.3379
  195CHL    CL1 1099   3.076   1.718   1.169  0.1861 -0.0297 -0.0981
  195CHL    CL2 1100   2.984   1.926   1.356  0.3471  0.1234 -0.2203
  195CHL      H 1101   2.955   1.690   1.367 -2.1324  0.4642  0.0094
  196CHL     CL 1102   0.975   0.804   1.287 -0.0328  0.0065  0.1573
  196CHL      C 1103   1.143   0.746   1.303  0.2118  0.6502  0.2097
  196CHL    CL1 1104   1.209   0.656   1.163  0.1641  0.1035 -0.0336
  196CHL    CL2 1105   1.259   0.874   1.335 -0.3300  0.3662  0.3752
  196CHL      H 1106   1.141   0.680   1.390  1.2934 -0.0889 -0.2971
  197CHL     CL 1107   2.789   2.625   0.371  0.4339 -0.2209  0.3138
  197CHL      C 1108   2.765   2.515   0.512  0.5122  0.0517  0.6067
  197CHL    CL1 1109   2.806   2.336   0.467  0.0684  0.0289 -0.3482
  197CHL    CL2 1110   2.853   2.570   0.672  0.3967  0.1998 -0.3121
  197CHL      H 1111   2.657   2.521   0.528  0.6020 -0.3187  1.4216
  198CHL     CL 1112   2.948   0.489   1.127  0.0582 -0.2634  0.1488
  198CHL      C 1113   2.891   0.621   1.028 -0.4495  0.0171 -0.1802
  198CHL    CL1 1114   3.011   0.751   1.050 -0.1510  0.2248 -0.2342
  198CHL    CL2 1115   2.870   0.570   0.856  0.0453 -0.5395 -0.2181
  198CHL      H 1116   2.791   0.649   1.064  0.3951  1.6843  1.0012
  199CHL     CL 1117   0.671   0.775   2.707  0.0629  0.1589 -0.0893
  199CHL      C 1118   0.628   0.678   2.857 -0.4324 -0.4779  0.4928
  199CHL    CL1 1119   0.653   0.783   3.001 -0.0350 -0.1381 -0.2203
  199CHL    CL2 1120   0.456   0.625   2.853 -0.1027 -0.0785  0.4115
  199CHL      H 1121   0.696   0.594   2.879  1.0975  0.7403  0.6236
  200CHL     CL 1122   3.514   0.617   1.443  0.1527 -0.1542 -0.2608
  200CHL      C 1123   3.357   0.603   1.343 -0.3940  0.6394  0.0122
  200CHL    CL1 1124   3.216   0.633   1.450 -0.1820  0.0519 -0.8236
  200CHL    CL2 1125   3.370   0.716   1.205  0.5018  0.3437 -0.0179
  200CHL      H 1126   3.352   0.506   1.292 -0.9216  1.8992 -2.5141
  201CHL     CL 1127   0.982   3.668   3.690  0.1131  0.0292 -0.3500
  201CHL      C 1128   1.026   3.712   3.525  0.0011 -0.2888 -0.3467
  201CHL    CL1 1129   0.882   3.810   3.481  0.0764  0.2758  0.1868
  201CHL    CL2 1130   1.170   3.823   3.535  0.1183 -0.0857 -0.4196
  201CHL      H 1131   1.036   3.630   3.453  1.1584 -0.2440 -0.2483
  202CHL     CL 1132   3.123   1.901   2.421  0.0405  0.2089  0.5590
  202CHL      C 1133   2.995   2.012   2.386  0.2055 -0.3578  0.5197
  202CHL    CL1 1134   3.048   2.140   2.269 -0.3430  0.0108 -0.3195
  202CHL    CL2 1135   2.838   1.946   2.311  0.5688  0.0948 -0.1328
  202CHL      H 1136   2.973   2.058   2.483  1.7913 -3.1668  2.3664
  203CHL     CL 1137   2.296   2.746   0.784  0.1223  0.5645 -0.4360
  203CHL      C 1138   2.456   2.714   0.857 -0.2055  0.0737  0.1508
  203CHL    CL1 1139   2.489   2.534   0.845 -0.2191  0.0844 -0.0239
  203CHL    CL2 1140   2.592   2.798   0.768 -0.4970  0.0776  0.0607
  203CHL      H 1141   2.459   2.737   0.964  1.3702  2.0614 -0.2635
  204CHL     CL 1142   3.222   0.976   2.731  0.1178 -0.1190 -0.0218
  204CHL      C 1143   3.396   0.953   2.738 -0.2048  0.4312  0.1476
  204CHL    CL1 1144   3.436   0.808   2.841 -0.2848 -0.5615  0.0979
  204CHL    CL2 1145   3.462   0.919   2.575 -0.0766  0.0244 -0.0162
  204CHL      H 1146   3.441   1.037   2.792 -1.3715  2.5362 -1.9820
  205CHL     CL 1147   2.479   2.713   2.809 -0.1977  0.1120  0.4307
  205CHL      C 1148   2.488   2.658   2.989  0.0821  0.2854  0.6046
  205CHL    CL1 1149   2.572   2.503   3.015  0.4859  0.1966  0.0222
  205CHL    CL2 1150   2.567   2.785   3.079 -0.3454 -0.1873  0.0254
  205CHL      H 1151   2.385   2.646   3.022 -0.0740  2.5081  1.1283
  206CHL     CL 1152   2.246   2.637   1.152 -0.3769  0.4063 -0.0774
  206CHL      C 1153   2.199   2.465   1.123 -0.4106 -0.1113  0.1769
  206CHL    CL1 1154   2.332   2.353   1.151 -0.3245 -0.2112 -0.0886
  206CHL    CL2 1155   2.051   2.423   1.219  0.5068  0.6039  0.0953
  206CHL      H 1156   2.169   2.452   1.019  1.2075  1.0373 -0.4802
  207CHL     CL 1157   3.429   3.107   1.822 -0.0424 -0.2043 -0.3039
  207CHL      C 1158   3.536   3.054   1.954  0.1889  0.7901 -0.7430
  207CHL    CL1 1159   3.683   2.986   1.879  0.0472  0.2819  0.2033
  207CHL    CL2 1160   3.573   3.196   2.052 -0.0560  0.0838 -0.1960
  207CHL      H 1161   3.492   2.981   2.022  0.6185  0.4320 -0.8423
  208CHL     CL 1162   1.946   1.162   2.233  0.2108  0.1366  0.1592
  208CHL      C 1163   1.969   1.135   2.057 -0.1093 -0.0357 -0.6608
  208CHL    CL1 1164   2.142   1.162   2.024 -0.1528 -0.2648  0.1172
  208CHL    CL2 1165   1.922   0.964   2.019  0.0193 -0.1307  0.4643
  208CHL      H 1166   1.905   1.205   2.001 -1.6208 -0.7907  0.0625
  209CHL     CL 1167   1.150   2.069   1.125  0.3669  0.1133  0.3758
  209CHL      C 1168   0.989   2.058   1.050  1.1124 -0.1022  0.2155
  209CHL    CL1 1169   0.868   2.134   1.163  0.0276 -0.0455  0.2860
  209CHL    CL2 1170   0.985   2.135   0.896 -0.3482 -0.1910 -0.0798
  209CHL      H 1171   0.957   1.953   1.049  0.4062  0.0510  2.1582
  210CHL     CL 1172   2.281   0.275   2.470 -0.2057 -0.0138 -0.3063
  210CHL      C 1173   2.363   0.199   2.610  1.0304  0.9114 -0.2522
  210CHL    CL1 1174   2.244   0.078   2.674  0.1532  0.0664  0.1578
  210CHL    CL2 1175   2.526   0.113   2.561  0.1765  0.3077  0.1288
  210CHL      H 1176   2.385   0.274   2.687 -2.4538  1.3108  0.5295
  211CHL     CL 1177   1.258   1.661   2.332  0.4946 -0.0198 -0.5020
  211CHL      C 1178   1.277   1.752   2.178  0.3585 -0.4905  0.6338
  211CHL    CL1 1179   1.127   1.828   2.122  0.4098 -0.2196  0.1215
  211CHL    CL2 1180   1.396   1.883   2.194 -0.1076 -0.3489 -0.2993
  211CHL      H 1181   1.313   1.676   2.108 -0.0985 -0.4772  0.3879
  212CHL     CL 1182   2.618   3.471   0.899 -0.1667 -0.2226  0.2682
  212CHL      C 1183   2.599   3.631   0.798  0.2946 -0.2138 -0.4108
  212CHL    CL1 1184   2.677   3.619   0.640  0.3050  0.6332 -0.3244
  212CHL    CL2 1185   2.418   3.650   0.755 -0.4896  0.1220  0.1235
  212CHL      H 1186   2.625   3.717   0.861  0.6405 -1.7465  1.6359
  213CHL     CL 1187   2.946   3.742   3.359 -0.0453  0.4950 -0.3796
  213CHL      C 1188   3.099   3.830   3.312  0.1126 -0.4766  0.3394
  213CHL    CL1 1189   3.233   3.712   3.335 -0.0274  0.0232  0.1297
  213CHL    CL2 1190   3.091   3.875   3.142 -0.1626 -0.1426 -0.3080
  213CHL      H 1191   3.104   3.926   3.364 -2.2304  0.4678 -1.0380
  214CHL     CL 1192   1.822   3.348   0.723 -0.3320 -0.2705 -0.0968
  214CHL      C 1193   1.724   3.227   0.639 -0.0193  0.6893 -0.1111
  214CHL    CL1 1194   1.816   3.067   0.634  0.1240 -0.1165 -0.0180
  214CHL    CL2 1195   1.568   3.193   0.726  0.3923  0.0626  0.1132
  214CHL      H 1196   1.717   3.255   0.534  1.0939 -0.3325 -0.4880
  215CHL     CL 1197   1.834   1.454   3.037 -0.3718 -0.3700 -0.4603
  215CHL      C 1198   1.885   1.373   2.886  0.7454  0.3568 -0.4022
  215CHL    CL1 1199   2.010   1.465   2.796 -0.2747  0.0566 -0.3190
  215CHL    CL2 1200   1.953   1.214   2.934 -0.3401 -0.2220 -0.4017
  215CHL      H 1201   1.802   1.346   2.820  1.0962 -0.5925 -0.4782
  216CHL     CL 1202   0.037   1.386   2.566  0.0925  0.3371 -0.0814
  216CHL      C 1203  -0.011   1.233   2.645  0.1919 -0.6198  0.3568
  216CHL    CL1 1204   0.058   1.226   2.808  0.4686 -0.1676  0.2133
  216CHL    CL2 1205  -0.190   1.232   2.653 -0.1150 -0.0586 -0.1494
  216CHL      H 1206   0.024   1.157   2.575  1.1966 -0.5169  0.7188
  217CHL     CL 1207   0.571   2.715   1.274  0.2665  0.2913  0.3434
  217CHL      C 1208   0.581   2.785   1.107 -0.7576 -0.3704  0.4946
  217CHL    CL1 1209   0.517   2.954   1.114 -0.2939  0.1337  0.5801
  217CHL    CL2 1210   0.751   2.788   1.036 -0.1737  0.7883  0.4245
  217CHL      H 1211   0.517   2.730   1.038 -1.3720 -1.2171  1.7143
  218CHL     CL 1212   2.527   0.898   2.235  0.0115 -0.2191 -0.1482
  218CHL      C 1213   2.684   0.850   2.300  0.3559  0.1710 -0.2614
  218CHL    CL1 1214   2.657   0.695   2.383  0.2672 -0.4143  0.2927
  218CHL    CL2 1215   2.803   0.828   2.169  0.1008  0.1683 -0.0222
  218CHL      H 1216   2.718   0.926   2.371 -2.9793  1.1986  0.4149
  219CHL     CL 1217   2.647   1.546   0.338  0.3030  0.0057 -0.4422
  219CHL      C 1218   2.565   1.380   0.369 -0.7691 -0.2953  0.2896
  219CHL    CL1 1219   2.695   1.248   0.381 -0.2679  0.3215 -0.2166
  219CHL    CL2 1220   2.469   1.385   0.522 -0.0597  0.0102  0.1292
  219CHL      H 1221   2.505   1.356   0.280 -0.6613 -1.6710  0.5699
  220CHL     CL 1222   3.129   3.073   0.365 -0.1906 -0.1721  0.0260
  220CHL      C 1223   3.058   3.112   0.207 -0.6586  0.2765 -0.6281
  220CHL    CL1 1224   2.974   2.960   0.150  0.2803 -0.2243 -0.6843
  220CHL    CL2 1225   2.938   3.240   0.220 -0.2712 -0.0422  0.3590
  220CHL      H 1226   3.136   3.149   0.141  1.3386 -1.0268  0.8704
  221CHL     CL 1227   0.496   2.151   0.615  0.0994  0.0123  0.0608
  221CHL      C 1228   0.458   2.037   0.742  0.7225  0.0012  0.3086
  221CHL    CL1 1229   0.486   1.875   0.677 -0.2206 -0.1051  0.1663
  221CHL    CL2 1230   0.573   2.056   0.879 -0.2532 -0.1617 -0.2276
  221CHL      H 1231   0.354   2.056   0.770  1.3283  2.1378  1.3006
  222CHL     CL 1232   3.785   1.753   1.789  0.5982  0.3873 -0.4752
  222CHL      C 1233   3.885   1.834   1.919 -0.1053  0.6683  0.3880
  222CHL    CL1 1234   3.809   1.986   1.964  0.2519  0.4075  0.1396
  222CHL    CL2 1235   3.889   1.726   2.057 -0.2611  0.1682  0.0799
  222CHL      H 1236   3.991   1.847   1.891  0.6609 -0.0347  2.7827
  223CHL     CL 1237   3.451   2.280   3.066  0.3880  0.4487 -0.0721
  223CHL      C 1238   3.595   2.230   2.965 -0.1516 -1.0384 -0.2158
  223CHL    CL1 1239   3.591   2.279   2.794 -0.0627 -0.2581  0.0842
  223CHL    CL2 1240   3.737   2.307   3.048  0.2635 -0.0264  0.1730
  223CHL      H 1241   3.617   2.123   2.977 -0.5430 -0.8735  2.8915
  224CHL     CL 1242   0.331   1.063   3.280 -0.1661  0.0491 -0.2356
  224CHL      C 1243   0.362   0.898   3.217  0.3217 -0.6710 -0.2706
  224CHL    CL1 1244   0.252   0.775   3.293  0.5080 -0.2432  0.2413
  224CHL    CL2 1245   0.353   0.898   3.037  0.3815  0.1519 -0.1994
  224CHL      H 1246   0.462   0.860   3.241 -0.0662 -1.8416 -0.4547
  225CHL     CL 1247   1.747   0.896   2.463  0.2391  0.0105 -0.5394
  225CHL      C 1248   1.800   0.816   2.617  0.2481  0.3415 -0.1006
  225CHL    CL1 1249   1.967   0.761   2.593  0.1507 -0.1357 -0.5638
  225CHL    CL2 1250   1.786   0.920   2.769 -0.3852  0.2131 -0.3483
  225CHL      H 1251   1.739   0.729   2.643  1.5798 -0.4446  0.4959
  226CHL     CL 1252   3.722   2.249   0.516 -0.3229 -0.2433 -0.0937
  226CHL      C 1253   3.742   2.379   0.399 -0.2654  0.2168  0.2678
  226CHL    CL1 1254   3.679   2.536   0.463  0.1144  0.7016 -0.2949
  226CHL    CL2 1255   3.920   2.404   0.354  0.0348  0.0527 -0.3639
  226CHL      H 1256   3.702   2.358   0.299  3.1734  0.8852 -1.4204
  227CHL     CL 1257   0.460   2.320   1.435 -0.2588 -0.0460 -0.0436
  227CHL      C 1258   0.510   2.252   1.271 -0.6423 -0.4265 -0.3973
  227CHL    CL1 1259   0.379   2.169   1.180 -0.4210 -0.0086  0.1363
  227CHL    CL2 1260   0.587   2.384   1.192  0.2281 -0.2511  0.0706
  227CHL      H 1261   0.586   2.176   1.291 -1.9720 -1.1425  2.4557
  228CHL     CL 1262   3.193   0.484   3.606 -0.1658  0.5468 -0.4312
  228CHL      C 1263   3.293   0.347   3.660  0.0579 -0.4663  0.4440
  228CHL    CL1 1264   3.266   0.293   3.828  0.4038 -0.2000  0.3469
  228CHL    CL2 1265   3.273   0.210   3.549  0.1714  0.2312 -0.0199
  228CHL      H 1266   3.398   0.377   3.653 -0.7605  2.7041  0.1366
  229CHL     CL 1267   3.652   0.338   2.519  0.1401  0.2224 -0.0994
  229CHL      C 1268   3.495   0.391   2.574 -0.0112  0.4605 -0.1547
  229CHL    CL1 1269   3.370   0.259   2.550 -0.4766  0.0175 -0.1114
  229CHL    CL2 1270   3.512   0.437   2.746 -0.1691  0.1727  0.4404
  229CHL      H 1271   3.463   0.482   2.522  0.7477 -0.0801 -1.6384
  230CHL     CL 1272   0.438   2.400   3.602 -0.0219 -0.2991 -0.0557
  230CHL      C 1273   0.563   2.365   3.484  0.0158 -0.4579  0.4689
  230CHL    CL1 1274   0.631   2.203   3.510 -0.0585  0.3802  0.6338
  230CHL    CL2 1275   0.495   2.359   3.318  0.1540 -0.0885 -0.2215
  230CHL      H 1276   0.633   2.450   3.484  0.0862 -0.5152  0.4396
  231CHL     CL 1277   0.589   0.472   0.472  0.0244  0.0094 -0.0027
  231CHL      C 1278   0.535   0.477   0.303  0.6316  0.0243  0.1047
  231CHL    CL1 1279   0.671   0.391   0.210 -0.1801  0.0283  0.2243
  231CHL    CL2 1280   0.377   0.407   0.270  0.2391  0.0433 -0.3804
  231CHL      H 1281   0.533   0.582   0.272  2.2403 -0.3249 -1.3234
  232CHL     CL 1282   0.615   1.537   1.430  0.2875  0.4479  0.4327
  232CHL      C 1283   0.787   1.523   1.398 -0.0801 -0.1998 -0.6194
  232CHL    CL1 1284   0.809   1.471   1.224  0.3140  0.3781 -0.3270
  232CHL    CL2 1285   0.871   1.682   1.422 -0.3377  0.1237  0.1222
  232CHL      H 1286   0.816   1.446   1.470  2.2829  1.1282 -0.0589
  233CHL     CL 1287   0.696   2.507   0.143 -0.4436 -0.1847 -0.3876
  233CHL      C 1288   0.720   2.683   0.155 -0.0041 -0.2634 -0.2499
  233CHL    CL1 1289   0.586   2.764   0.234 -0.1935 -0.0461  0.2756
  233CHL    CL2 1290   0.874   2.709   0.254  0.7374 -0.1380 -0.2599
  233CHL      H 1291   0.735   2.728   0.056  0.7903 -1.9994 -0.9587
  234CHL     CL 1292   1.465   0.688   2.549 -0.4678  0.0271  0.2124
  234CHL      C 1293   1.495   0.518   2.493  0.6419 -0.0136  0.0216
  234CHL    CL1 1294   1.404   0.487   2.341  0.2255 -0.1757  0.2533
  234CHL    CL2 1295   1.671   0.493   2.445 -0.5737 -0.4537  0.3783
  234CHL      H 1296   1.466   0.448   2.572  1.5390 -2.5414 -1.7925
  235CHL     CL 1297   3.747   1.817   2.416 -0.1963 -0.0728 -0.1952
  235CHL      C 1298   3.614   1.691   2.422  0.0713  0.5117 -1.0008
  235CHL    CL1 1299   3.460   1.768   2.444 -0.1026  0.3709 -0.5146
  235CHL    CL2 1300   3.622   1.588   2.275 -0.2025 -0.3027 -0.1872
  235CHL      H 1301   3.624   1.629   2.512 -2.4121  1.7007  0.1962
  236CHL     CL 1302   1.258   2.607   0.528 -0.1955 -0.3444  0.1656
  236CHL      C 1303   1.408   2.712   0.498  0.1921 -0.3831  0.3684
  236CHL    CL1 1304   1.473   2.773   0.656  0.2733  0.4125 -0.3660
  236CHL    CL2 1305   1.522   2.596   0.422 -0.3422 -0.0806  0.3713
  236CHL      H 1306   1.379   2.795   0.433  1.4185  1.1068  1.6397
  237CHL     CL 1307   0.953   1.048   0.785 -0.4573  0.0888 -0.3854
  237CHL      C 1308   1.044   0.888   0.796 -0.4758  0.5954  0.0876
  237CHL    CL1 1309   1.130   0.875   0.950 -0.1786  0.1916 -0.2443
  237CHL    CL2 1310   0.922   0.756   0.784  0.1890 -0.0787 -0.3104
  237CHL      H 1311   1.126   0.883   0.723 -0.6782  0.2147 -0.1140
  238CHL     CL 1312   3.524   3.070   2.514  0.1864 -0.3361  0.1016
  238CHL      C 1313   3.474   3.150   2.672  0.0983 -0.3993  0.0153
  238CHL    CL1 1314   3.447   3.319   2.628 -0.0240 -0.2313 -0.0839
  238CHL    CL2 1315   3.313   3.081   2.728 -0.0534  0.0359 -0.0268
  238CHL      H 1316   3.554   3.143   2.746  0.4894 -1.4911 -0.4871
  239CHL     CL 1317   1.868   1.768   0.689 -0.1918 -0.2755  0.1040
  239CHL      C 1318   1.887   1.942   0.626 -0.7015  0.0361  0.4523
  239CHL    CL1 1319   2.014   2.029   0.721 -0.2572  0.3483  0.0783
  239CHL    CL2 1320   1.929   1.940   0.452  0.2148 -0.1582  0.0785
  239CHL      H 1321   1.790   1.989   0.643 -0.3426  2.1826 -2.6139
  240CHL     CL 1322   2.079   2.315   1.646  0.0904 -0.0353 -0.0133
  240CHL      C 1323   1.987   2.343   1.801  0.4041  0.4741  0.5212
  240CHL    CL1 1324   1.803   2.342   1.760  0.3221 -0.6303 -0.0977
  240CHL    CL2 1325   2.030   2.219   1.919  0.2510  0.1544  0.3442
  240CHL      H 1326   2.019   2.442   1.835 -0.6279  0.3482  1.9309
  241CHL     CL 1327   2.480   2.635   3.750 -0.8091  0.2951  0.3099
  241CHL      C 1328   2.637   2.661   3.812 -0.1264 -0.1784  0.7725
  241CHL    CL1 1329   2.750   2.536   3.742 -0.2843 -0.2697  0.2825
  241CHL    CL2 1330   2.680   2.825   3.757 -0.0780 -0.5657 -0.2645
  241CHL      H 1331   2.634   2.657   3.922  1.1568  0.4487  0.8448
  242CHL     CL 1332   0.960   3.394   0.201  0.1109  0.1350 -0.3676
  242CHL      C 1333   0.835   3.421   0.326 -0.4652 -0.0419  0.4069
  242CHL    CL1 1334   0.886   3.585   0.416 -0.3427  0.3370 -0.1119
  242CHL    CL2 1335   0.679   3.447   0.253 -0.0518 -0.1724  0.1259
  242CHL      H 1336   0.827   3.336   0.396  0.1389 -0.4295  0.0122
  243CHL     CL 1337   3.293   3.405   3.462 -0.3267 -0.5508 -0.2789
  243CHL      C 1338   3.388   3.284   3.556  0.0288 -0.1005  0.5437
  243CHL    CL1 1339   3.274   3.221   3.685 -0.2986  0.2675 -0.1493
  243CHL    CL2 1340   3.431   3.150   3.438 -0.4108  0.0693 -0.3073
  243CHL      H 1341   3.480   3.331   3.592  1.0477 -0.6538 -1.2378
  244CHL     CL 1342   1.417   0.814   0.701 -0.6404 -0.4296  0.0858
  244CHL      C 1343   1.497   0.822   0.548  0.5685 -0.2149 -0.8499
  244CHL    CL1 1344   1.378   0.905   0.438 -0.2763 -0.2693  0.2368
  244CHL    CL2 1345   1.645   0.920   0.565  0.1576  0.2335  0.1690
  244CHL      H 1346   1.517   0.721   0.512  0.2530 -0.4583 -0.3474
  245CHL     CL 1347   2.245   0.592   3.641 -0.3034 -0.0335 -0.3477
  245CHL      C 1348   2.334   0.477   3.547 -0.5122  0.5154  0.3448
  245CHL    CL1 1349   2.312   0.513   3.365  0.0582  0.1920 -0.1938
  245CHL    CL2 1350   2.513   0.479   3.593  0.0391  0.1743  0.2427
  245CHL      H 1351   2.284   0.382   3.569 -1.3670  0.7556 -0.4796
  246CHL     CL 1352   2.425   2.943   3.428  0.1595  0.0460 -0.5248
  246CHL      C 1353   2.358   2.804   3.346  0.6587  0.7318 -0.0622
  246CHL    CL1 1354   2.254   2.696   3.455 -0.2844 -0.1861 -0.3057
  246CHL    CL2 1355   2.260   2.866   3.214  0.1373  0.5388  0.3888
  246CHL      H 1356   2.443   2.745   3.308 -0.6050 -0.7474 -0.7317
  247CHL     CL 1357   3.288   1.248   1.088 -0.1666 -0.3858 -0.6028
  247CHL      C 1358   3.446   1.177   1.046  0.6847  0.3701  0.0318
  247CHL    CL1 1359   3.511   1.076   1.185 -0.0628 -0.0864 -0.1712
  247CHL    CL2 1360   3.422   1.085   0.900  0.0574  0.2132 -0.1335
  247CHL      H 1361   3.507   1.265   1.025 -1.3857  1.7874 -0.3547
  248CHL     CL 1362   0.974   0.567   1.739  0.0653  0.1101 -0.3510
  248CHL      C 1363   1.142   0.575   1.790  0.0558  0.0498  0.5691
  248CHL    CL1 1364   1.214   0.411   1.806 -0.0834  0.4247  0.1551
  248CHL    CL2 1365   1.250   0.675   1.683  0.0648  0.2550 -0.1355
  248CHL      H 1366   1.148   0.628   1.885 -3.8888  4.2072 -1.0920
  249CHL     CL 1367   3.457   0.868   0.116 -0.1294  0.0349  0.1383
  249CHL      C 1368   3.451   0.687   0.154 -0.5448  0.0224 -0.4520
  249CHL    CL1 1369   3.283   0.640   0.202  0.2200 -0.0932  0.2961
  249CHL    CL2 1370   3.510   0.577   0.023  0.2160 -0.0849  0.1881
  249CHL      H 1371   3.514   0.675   0.242  2.5128 -0.3356 -2.5352
  250CHL     CL 1372   0.251   1.989   1.441 -0.2996  0.0336 -0.1954
  250CHL      C 1373   0.110   2.089   1.501 -0.2679 -0.3641  0.3317
  250CHL    CL1 1374   0.156   2.158   1.656  0.0383 -0.5577  0.1324
  250CHL    CL2 1375   0.070   2.217   1.390 -0.0517  0.0433 -0.0793
  250CHL      H 1376   0.024   2.024   1.518  0.0095 -1.3839 -1.8072
  251CHL     CL 1377   1.179   2.547   3.166 -0.2303  0.2411 -0.0088
  251CHL      C 1378   1.045   2.440   3.096  0.0354  0.3113  0.5334
  251CHL    CL1 1379   0.926   2.529   3.001  0.1509  0.0150 -0.3510
  251CHL    CL2 1380   1.120   2.310   2.998  0.1006 -0.0378 -0.2082
  251CHL      H 1381   0.988   2.397   3.179 -0.7545 -0.5780 -0.4497
  252CHL     CL 1382   1.570   0.447   0.645  0.3092 -0.3498 -0.2919
  252CHL      C 1383   1.566   0.284   0.729 -0.3226  0.6375  0.2368
  252CHL    CL1 1384   1.512   0.316   0.902 -0.4398 -0.2173 -0.0018
  252CHL    CL2 1385   1.434   0.187   0.656  0.0584 -0.1557 -0.2487
  252CHL      H 1386   1.660   0.229   0.728  0.1371  1.2664 -2.8716
  253CHL     CL 1387   3.259   0.278   1.484 -0.0177  0.2920 -0.1738
  253CHL      C 1388   3.348   0.303   1.638 -0.8914 -0.9756 -0.1612
  253CHL    CL1 1389   3.331   0.150   1.732 -0.0333 -0.2078 -0.0095
  253CHL    CL2 1390   3.526   0.324   1.605 -0.0224 -0.2214 -0.0137
  253CHL      H 1391   3.310   0.388   1.695  0.6575 -0.0273 -0.4634
  254CHL     CL 1392   2.944   2.380   1.777  0.1887 -0.1010  0.2496
  254CHL      C 1393   3.005   2.268   1.895  0.2237 -0.5836 -0.5551
  254CHL    CL1 1394   3.133   2.349   2.004  0.3503  0.0887 -0.0045
  254CHL    CL2 1395   2.862   2.187   1.984 -0.5186 -0.3967 -0.1892
  254CHL      H 1396   3.047   2.192   1.829 -1.5975 -2.0173 -0.1254
  255CHL     CL 1397   1.146   2.383   3.788 -0.0314 -0.3269  0.2504
  255CHL      C 1398   1.288   2.414   3.886 -1.8052  0.2566 -0.5528
  255CHL    CL1 1399   1.321   2.594   3.896  0.2922 -0.1372 -0.5757
  255CHL    CL2 1400   1.267   2.318   4.033  0.6150  0.2214  0.4297
  255CHL      H 1401   1.374   2.372   3.833 -0.5157  0.2702  1.4598
  256CHL     CL 1402   3.298   0.788   2.057  0.3457 -0.2883 -0.4286
  256CHL      C 1403   3.425   0.671   2.027  0.4501  0.1738  0.0401
  256CHL    CL1 1404   3.406   0.599   1.859  0.3006  0.0267  0.5576
  256CHL    CL2 1405   3.593   0.744   2.041  0.0682 -0.0886 -0.4678
  256CHL      H 1406   3.422   0.583   2.091  1.6008  0.5026  0.5670
  257CHL     CL 1407   2.751   1.266   1.811  0.2669  0.1889  0.0838
  257CHL      C 1408   2.860   1.226   1.947  0.4819  0.4480  0.5322
  257CHL    CL1 1409   2.768   1.223   2.103 -0.2936  0.1117  0.2534
  257CHL    CL2 1410   2.917   1.054   1.921  0.2818 -0.0238  0.4274
  257CHL      H 1411   2.951   1.285   1.961  0.5579  0.7358 -0.9732
  258CHL     CL 1412   3.591   0.220   3.014 -0.1322 -0.1715 -0.0179
  258CHL      C 1413   3.465   0.086   2.960 -0.0808 -0.1040  0.1982
  258CHL    CL1 1414   3.505   0.050   2.800 -0.1095  0.3357 -0.1742
  258CHL    CL2 1415   3.493  -0.060   3.077  0.3687 -0.1459 -0.2238
  258CHL      H 1416   3.358   0.110   2.965 -0.1614  0.5906 -2.8580
  259CHL     CL 1417   1.440   2.254   3.587  0.1553  0.3326 -0.2029
  259CHL      C 1418   1.471   2.093   3.527 -0.1819  0.3350 -0.0194
  259CHL    CL1 1419   1.629   2.079   3.441  0.0071  0.1468 -0.1403
  259CHL    CL2 1420   1.479   1.983   3.667  0.2012  0.7902  0.4696
  259CHL      H 1421   1.387   2.060   3.465  1.4843 -0.0135 -2.2370
  260CHL     CL 1422   0.392   3.766   2.058 -0.2358 -0.0731 -0.3806
  260CHL      C 1423   0.233   3.705   2.108 -0.2448  0.0350 -0.1450
  260CHL    CL1 1424   0.109   3.824   2.070 -0.0478  0.1697  0.2522
  260CHL    CL2 1425   0.178   3.564   2.029  0.0406  0.5825 -0.2018
  260CHL      H 1426   0.229   3.688   2.216 -1.8505  0.0886 -0.1615
  261CHL     CL 1427   0.672   1.211   2.931  0.1562 -0.0263  0.2352
  261CHL      C 1428   0.534   1.320   2.865 -0.3643  0.6476  0.0737
  261CHL    CL1 1429   0.378   1.241   2.905  0.0331  0.1345  0.0218
  261CHL    CL2 1430   0.538   1.489   2.935  0.2843 -0.5044  0.1876
  261CHL      H 1431   0.552   1.316   2.757 -0.9583 -1.4796  0.0174
  262CHL     CL 1432   3.742   3.297   2.365 -0.2576 -0.0672  0.2194
  262CHL      C 1433   3.927   3.284   2.358 -0.4909 -0.3935 -0.6184
  262CHL    CL1 1434   3.998   3.343   2.506  0.0477 -0.0364 -0.1264
  262CHL    CL2 1435   3.990   3.119   2.315 -0.1467  0.0176  0.3783
  262CHL      H 1436   3.963   3.351   2.279  1.3358 -1.1394 -0.4544
  263CHL     CL 1437   2.597   0.228   0.631 -0.0276 -0.1004  0.1379
  263CHL      C 1438   2.754   0.240   0.717 -0.3191 -0.5075 -0.4287
  263CHL    CL1 1439   2.720   0.253   0.891  0.1835  0.4187  0.1816
  263CHL    CL2 1440   2.873   0.105   0.684  0.0502 -0.2242 -0.0911
  263CHL      H 1441   2.790   0.339   0.688 -0.9687  0.1987  1.0842
  264CHL     CL 1442   3.257   0.622   2.401 -0.1122  0.0680 -0.1669
  264CHL      C 1443   3.154   0.752   2.483  0.1828 -0.2813 -0.0501
  264CHL    CL1 1444   3.146   0.893   2.377  0.2152 -0.6742  0.2048
  264CHL    CL2 1445   2.993   0.692   2.490  0.0339 -0.3806 -0.0803
  264CHL      H 1446   3.193   0.781   2.581  0.8996 -2.6992  0.4467
  265CHL     CL 1447   2.934   3.691   2.011 -0.3553  0.0240  0.2028
  265CHL      C 1448   2.809   3.721   1.890  0.5265 -0.6752  0.4922
  265CHL    CL1 1449   2.814   3.889   1.841  0.2072  0.0419 -0.0736
  265CHL    CL2 1450   2.836   3.624   1.748  0.4796  0.2198  0.0723
  265CHL      H 1451   2.710   3.687   1.922  1.6356 -2.8245  1.8047
  266CHL     CL 1452   2.130   3.497   2.044  0.6365 -0.1852  0.3085
  266CHL      C 1453   2.218   3.347   2.019  0.2769 -0.0128 -0.1821
  266CHL    CL1 1454   2.223   3.245   2.165 -0.2693 -0.0041  0.7034
  266CHL    CL2 1455   2.145   3.255   1.870 -0.2736 -0.2714 -0.2101
  266CHL      H 1456   2.321   3.375   1.993  0.8155 -0.4990  1.3211
  267CHL     CL 1457   3.278   3.691   2.612  0.0570  0.4086 -0.2548
  267CHL      C 1458   3.159   3.584   2.696  0.1818 -0.4373 -0.2965
  267CHL    CL1 1459   3.104   3.455   2.580 -0.0408 -0.1471  0.1677
  267CHL    CL2 1460   3.220   3.530   2.854 -0.1998 -0.1406 -0.0627
  267CHL      H 1461   3.074   3.651   2.713  0.9044  0.2963  0.4549
  268CHL     CL 1462   1.383   0.817   3.584 -0.2254 -0.2867  0.3975
  268CHL      C 1463   1.304   0.984   3.589 -0.0599  0.7480 -0.1693
  268CHL    CL1 1464   1.115   0.966   3.596 -0.2353  0.1226  0.1515
  268CHL    CL2 1465   1.375   1.092   3.713 -0.0339 -0.1457  0.3172
  268CHL      H 1466   1.326   1.025   3.490  0.4676 -0.4790 -0.5887
  269CHL     CL 1467   1.991   2.679   3.766 -0.1005  0.3334 -0.3200
  269CHL      C 1468   2.113   2.776   3.861 -0.0032  0.1152 -0.2618
  269CHL    CL1 1469   2.026   2.873   3.985 -0.1934 -0.7597  0.2867
  269CHL    CL2 1470   2.220   2.650   3.938  0.3973  0.2501  0.0679
  269CHL      H 1471   2.176   2.842   3.801  1.8862  0.6952  2.2037
  270CHL     CL 1472   0.441   1.881   3.102  0.4587 -0.0247 -0.0898
  270CHL      C 1473   0.357   1.996   3.209  0.5909 -0.0617  0.1138
  270CHL    CL1 1474   0.172   1.976   3.173 -0.2636  0.4981  0.2807
  270CHL    CL2 1475   0.373   1.948   3.390  0.0942  0.3609 -0.1159
  270CHL      H 1476   0.392   2.099   3.189 -0.4741  0.2482 -0.2054
  271CHL     CL 1477   0.338   1.382   2.162 -0.1119  0.1075  0.2907
  271CHL      C 1478   0.384   1.238   2.258 -0.2137 -0.1250  0.3827
  271CHL    CL1 1479   0.280   1.239   2.399  0.4564 -0.2197  0.2901
  271CHL    CL2 1480   0.352   1.085   2.165 -0.0508 -0.6258 -0.1986
  271CHL      H 1481   0.487   1.252   2.291  1.1244 -1.5877 -2.7355
  272CHL     CL 1482   2.633   3.555   2.572  0.0840  0.3479  0.2051
  272CHL      C 1483   2.552   3.436   2.464 -0.3047 -0.2032  0.0298
  272CHL    CL1 1484   2.409   3.364   2.548 -0.0180 -0.2749  0.1796
  272CHL    CL2 1485   2.502   3.521   2.308 -0.0537 -0.4159 -0.1491
  272CHL      H 1486   2.624   3.356   2.445 -1.4398 -1.7910  2.0550
  273CHL     CL 1487   2.477   1.191   2.430  0.2901 -0.0618  0.1660
  273CHL      C 1488   2.297   1.194   2.435  0.1972 -0.0008 -0.1969
  273CHL    CL1 1489   2.242   1.177   2.611 -0.0632 -0.0323  0.0941
  273CHL    CL2 1490   2.241   1.355   2.376 -0.2181 -0.0410 -0.4061
  273CHL      H 1491   2.259   1.122   2.361 -0.7822  1.2628 -0.9442
  274CHL     CL 1492   1.897   1.017   3.492 -0.0416 -0.0756  0.0842
  274CHL      C 1493   1.779   1.113   3.400 -0.2107 -0.0615 -0.9109
  274CHL    CL1 1494   1.822   1.082   3.236 -0.0699 -0.1806 -0.0137
  274CHL    CL2 1495   1.616   1.061   3.437 -0.0879 -0.2399 -0.0185
  274CHL      H 1496   1.781   1.222   3.413  1.1855 -0.1043 -0.6679
  275CHL     CL 1497   0.975   1.393   3.647 -0.1728  0.0176 -0.2412
  275CHL      C 1498   1.027   1.560   3.655 -0.2898  0.7999  0.2026
  275CHL    CL1 1499   0.887   1.660   3.626 -0.3249  0.0797 -0.2519
  275CHL    CL2 1500   1.113   1.582   3.810  0.1067  0.1100 -0.2837
  275CHL      H 1501   1.097   1.578   3.573  1.5181 -2.0563  0.9444
  276CHL     CL 1502   2.951   0.728   0.163  0.4379  0.0120  0.3037
  276CHL      C 1503   2.895   0.883   0.226  0.8260  0.4317  0.8983
  276CHL    CL1 1504   2.952   0.898   0.405  0.0298 -0.2606  0.1712
  276CHL    CL2 1505   2.961   0.999   0.116  0.1116 -0.2062  0.4343
  276CHL      H 1506   2.785   0.882   0.227  0.5295 -2.7784 -3.6575
  277CHL     CL 1507   3.160   2.369   0.487 -0.1248  0.4869 -0.1339
  277CHL      C 1508   3.311   2.426   0.416 -0.3504  0.4213  0.4898
  277CHL    CL1 1509   3.337   2.374   0.247  0.4197 -0.3734  0.2249
  277CHL    CL2 1510   3.309   2.608   0.431 -0.2271  0.0780 -0.2594
  277CHL      H 1511   3.401   2.402   0.474 -0.0568  2.1276  0.7769
  278CHL     CL 1512   1.884   0.557   0.389  0.2472 -0.3777  0.1068
  278CHL      C 1513   2.059   0.517   0.345  0.3822 -0.3254  0.2313
  278CHL    CL1 1514   2.083   0.333   0.343 -0.0584 -0.1101 -0.1697
  278CHL    CL2 1515   2.108   0.599   0.191 -0.2249 -0.4384 -0.1559
  278CHL      H 1516   2.123   0.559   0.423  0.4096  0.0701 -0.0004
  279CHL     CL 1517   1.831   1.301   1.358 -0.1375 -0.4033  0.1871
  279CHL      C 1518   1.894   1.432   1.259  0.1430 -0.4302 -0.6041
  279CHL    CL1 1519   1.979   1.551   1.372  0.2847  0.0935  0.0456
  279CHL    CL2 1520   2.008   1.374   1.135 -0.0806 -0.0513 -0.1033
  279CHL      H 1521   1.802   1.477   1.220  0.9808  0.3646 -1.7040
  280CHL     CL 1522   1.329   1.426   3.048  0.0239  0.3196 -0.0487
  280CHL      C 1523   1.389   1.268   2.983  0.0265  0.6380  0.5479
  280CHL    CL1 1524   1.332   1.249   2.804 -0.1325 -0.1321  0.0118
  280CHL    CL2 1525   1.564   1.238   3.003 -0.1448 -0.2050  0.0895
  280CHL      H 1526   1.327   1.193   3.033 -1.3647  0.9141 -0.6894
  281CHL     CL 1527   3.476   3.110   0.674 -0.1621  0.0683  0.1363
  281CHL      C 1528   3.621   3.012   0.641 -0.5126 -0.4520  0.5582
  281CHL    CL1 1529   3.755   3.144   0.614 -0.1922  0.0845  0.1329
  281CHL    CL2 1530   3.651   2.908   0.779  0.0397 -0.3515 -0.0252
  281CHL      H 1531   3.617   2.951   0.550  1.6976 -0.0984  0.1707
  282CHL     CL 1532   3.216   3.020   0.988 -0.0825 -0.2042  0.1037
  282CHL      C 1533   3.084   2.937   0.894  0.7035  0.4185 -0.0012
  282CHL    CL1 1534   3.136   2.929   0.724  0.4202  0.0515 -0.2153
  282CHL    CL2 1535   3.044   2.772   0.965 -0.1600 -0.2810  0.1439
  282CHL      H 1536   2.990   2.993   0.902  0.0778 -0.5037 -0.7144
  283CHL     CL 1537   2.349   1.915   0.880  0.1002  0.0184  0.0461
  283CHL      C 1538   2.461   2.038   0.941 -0.3371 -0.0351  0.2631
  283CHL    CL1 1539   2.548   1.991   1.088  0.4749  0.1449  0.4274
  283CHL    CL2 1540   2.589   2.077   0.820 -0.5108 -0.7266 -0.1309
  283CHL      H 1541   2.409   2.131   0.965 -0.8513  0.2180 -1.7156
  284CHL     CL 1542   3.782   0.712   1.703  0.0994 -0.0942 -0.1186
  284CHL      C 1543   3.861   0.780   1.561 -0.3976 -0.2939  0.0213
  284CHL    CL1 1544   3.791   0.941   1.546  0.3226 -0.0822  0.0984
  284CHL    CL2 1545   4.050   0.777   1.576 -0.3973 -0.0884  0.2597
  284CHL      H 1546   3.840   0.717   1.474 -1.3409  1.2338 -0.8975
  285CHL     CL 1547   3.372   1.030   1.656  0.2241  0.0893  0.0040
  285CHL      C 1548   3.343   1.208   1.646  0.2675  0.6235 -0.4659
  285CHL    CL1 1549   3.330   1.256   1.472  0.0834 -0.3076 -0.2132
  285CHL    CL2 1550   3.189   1.238   1.737 -0.0378  0.0661  0.4036
  285CHL      H 1551   3.422   1.269   1.691 -0.8268  1.8909 -0.2094
  286CHL     CL 1552   1.105   2.970   2.274 -0.2201 -0.2419 -0.1939
  286CHL      C 1553   1.206   2.907   2.141 -0.4439 -0.0465 -0.0327
  286CHL    CL1 1554   1.191   2.719   2.147  0.0817  0.2311  0.2436
  286CHL    CL2 1555   1.175   2.977   1.971 -0.1107 -0.2384  0.2868
  286CHL      H 1556   1.311   2.931   2.161 -0.0536 -1.1342 -0.6799
  287CHL     CL 1557   0.921   1.588   0.332 -0.2256  0.4493  0.0464
  287CHL      C 1558   0.816   1.717   0.402  0.2806  0.8682  0.5003
  287CHL    CL1 1559   0.654   1.646   0.401  0.1434  0.1455  0.2601
  287CHL    CL2 1560   0.875   1.744   0.571  0.1013 -0.0487  0.0445
  287CHL      H 1561   0.825   1.804   0.336  0.0551 -1.2004 -2.4165
  288CHL     CL 1562   1.336   1.832   0.401 -0.1587 -0.2322 -0.3797
  288CHL      C 1563   1.273   1.849   0.243  0.6822 -0.2874  0.8887
  288CHL    CL1 1564   1.096   1.882   0.258  0.0281  0.1409 -0.0190
  288CHL    CL2 1565   1.363   1.983   0.156 -0.2061  0.1975 -0.1862
  288CHL      H 1566   1.279   1.758   0.183  0.9774  0.5512 -0.4100
  289CHL     CL 1567   2.498   0.117   3.324 -0.3429 -0.4268 -0.1594
  289CHL      C 1568   2.478  -0.045   3.384  0.0405 -0.1112 -0.3368
  289CHL    CL1 1569   2.530  -0.057   3.556  0.7670 -0.3446 -0.0429
  289CHL    CL2 1570   2.319  -0.106   3.360  0.2933 -0.0348 -0.2655
  289CHL      H 1571   2.550  -0.107   3.330  0.6605 -1.8693  2.2956
  290CHL     CL 1572   3.302   3.360   1.057 -0.0068  0.3677 -0.3694
  290CHL      C 1573   3.438   3.284   1.144  0.6238  0.2007 -0.4712
  290CHL    CL1 1574   3.385   3.180   1.279  0.0293  0.4445 -0.0217
  290CHL    CL2 1575   3.523   3.192   1.023  0.3306  0.1127  0.5668
  290CHL      H 1576   3.509   3.359   1.180 -0.1576  0.5326  0.4283
  291CHL     CL 1577   3.748   2.596   2.816  0.0908 -0.0700  0.0430
  291CHL      C 1578   3.565   2.613   2.786  0.2449 -0.3508 -0.1718
  291CHL    CL1 1579   3.490   2.660   2.937  0.0628 -0.1375  0.1230
  291CHL    CL2 1580   3.520   2.735   2.669 -0.0291  0.3128 -0.1600
  291CHL      H 1581   3.529   2.518   2.747  0.6108 -1.4358  1.9738
  292CHL     CL 1582   3.481   3.699   0.258  0.0166 -0.1375  0.1267
  292CHL      C 1583   3.538   3.823   0.381 -0.1864 -0.5832  0.0759
  292CHL    CL1 1584   3.471   3.983   0.338  0.1417 -0.3524 -0.0531
  292CHL    CL2 1585   3.505   3.789   0.554  0.0547 -0.0969  0.3986
  292CHL      H 1586   3.647   3.827   0.368 -0.2923 -2.4673 -2.0460
  293CHL     CL 1587   0.818   2.366   2.258 -0.3724 -0.0385  0.1531
  293CHL      C 1588   0.707   2.249   2.192  1.2163  1.0058 -0.4661
  293CHL    CL1 1589   0.793   2.149   2.077  0.4265 -0.1642 -0.0462
  293CHL    CL2 1590   0.629   2.154   2.327 -0.1019  0.4181 -0.3660
  293CHL      H 1591   0.621   2.288   2.137  0.3788 -0.6029 -0.3812
  294CHL     CL 1592   3.361   0.344   1.104  0.3968  0.3366  0.3775
  294CHL      C 1593   3.450   0.181   1.132 -0.1761 -0.1398 -0.2242
  294CHL    CL1 1594   3.472   0.108   0.967  0.3547  0.2510 -0.1219
  294CHL    CL2 1595   3.603   0.221   1.218  0.0076  0.2143 -0.2035
  294CHL      H 1596   3.378   0.122   1.191 -2.9091  2.0976 -1.1266
  295CHL     CL 1597   2.018   3.223   2.868 -0.4366 -0.3288 -0.1323
  295CHL      C 1598   2.127   3.297   2.987  0.0760 -0.0090  0.0464
  295CHL    CL1 1599   2.028   3.437   3.040  0.2148 -0.4595  0.1591
  295CHL    CL2 1600   2.158   3.188   3.131  0.0807 -0.1202  0.0981
  295CHL      H 1601   2.218   3.332   2.938  0.3653 -1.9692 -0.9537
  296CHL     CL 1602   2.806   0.922   2.863  0.3270 -0.1037  0.0322
  296CHL      C 1603   2.740   1.043   2.755  0.7532  0.3339 -0.4662
  296CHL    CL1 1604   2.823   1.033   2.599  0.2888 -0.1799 -0.0882
  296CHL    CL2 1605   2.563   1.018   2.744  0.3101 -0.2964 -0.1726
  296CHL      H 1606   2.747   1.142   2.801 -1.1417  0.8976 -1.3161
  297CHL     CL 1607   3.553   0.770   0.907  0.3091  0.0955 -0.0129
  297CHL      C 1608   3.719   0.819   0.866 -0.7165  0.5739 -0.6305
  297CHL    CL1 1609   3.720   0.958   0.749  0.3258  0.1145 -0.0440
  297CHL    CL2 1610   3.796   0.870   1.022  0.4405  0.3916 -0.0834
  297CHL      H 1611   3.779   0.735   0.830 -0.6832  0.0388  0.6452
  298CHL     CL 1612   2.531   1.707   2.122  0.0759 -0.5964  0.2754
  298CHL      C 1613   2.448   1.602   2.006  0.3644 -0.3706  0.6134
  298CHL    CL1 1614   2.476   1.431   2.025  0.2040 -0.5734  0.3270
  298CHL    CL2 1615   2.266   1.632   2.025  0.1864 -0.2417 -0.5332
  298CHL      H 1616   2.488   1.639   1.911  0.5079  2.0564  1.5274
  299CHL     CL 1617   1.041   3.614   1.622  0.1427 -0.0147  0.1616
  299CHL      C 1618   0.986   3.714   1.755  0.0364 -0.3267 -0.1627
  299CHL    CL1 1619   0.975   3.614   1.897  0.0128  0.0692  0.2764
  299CHL    CL2 1620   1.108   3.848   1.778  0.2904 -0.1698  0.4001
  299CHL      H 1621   0.888   3.757   1.736 -0.2979 -0.6945  0.6823
  300CHL     CL 1622   0.320   0.765   0.584  0.1037  0.0322 -0.3725
  300CHL      C 1623   0.461   0.884   0.633 -0.1578  0.2766 -0.4834
  300CHL    CL1 1624   0.598   0.769   0.663  0.2297 -0.1551 -0.4938
  300CHL    CL2 1625   0.490   1.013   0.513  0.0179 -0.2517 -0.2398
  300CHL      H 1626   0.436   0.933   0.727 -1.9750  0.6094 -1.1074
  301CHL     CL 1627   3.509   1.867   0.718  0.0947  0.0427 -0.1573
  301CHL      C 1628   3.339   1.853   0.779 -0.3392 -0.5142  0.1011
  301CHL    CL1 1629   3.326   1.924   0.942 -0.2211  0.4385 -0.1911
  301CHL    CL2 1630   3.232   1.944   0.670 -0.2581 -0.7452  0.0474
  301CHL      H 1631   3.308   1.749   0.771 -0.7637 -0.3869  0.0609
  302CHL     CL 1632   2.571   3.377   2.868 -0.1809 -0.2149  0.4897
  302CHL      C 1633   2.591   3.282   3.021  0.6987 -0.1147 -0.0100
  302CHL    CL1 1634   2.513   3.379   3.149 -0.1741  0.1645 -0.2360
  302CHL    CL2 1635   2.509   3.128   3.005 -0.2477 -0.3108 -0.1751
  302CHL      H 1636   2.696   3.272   3.051  1.2897 -0.7940 -2.0791
  303CHL     CL 1637   2.991   0.013   2.423 -0.0282  0.1387  0.2103
  303CHL      C 1638   2.989   0.158   2.320 -1.0299 -1.2287  0.8406
  303CHL    CL1 1639   2.886   0.283   2.397  0.2241 -0.1025  0.0697
  303CHL    CL2 1640   3.157   0.216   2.293  0.2424  0.1140 -0.0058
  303CHL      H 1641   2.945   0.140   2.221  3.1413 -1.2976 -1.1894
  304CHL     CL 1642   0.313   0.077   0.732  0.6108  0.2682 -0.0494
  304CHL      C 1643   0.476   0.064   0.655 -0.3951  0.8228 -0.2237
  304CHL    CL1 1644   0.553  -0.087   0.714 -0.0112  0.4905  0.2248
  304CHL    CL2 1645   0.475   0.071   0.476  0.1220  0.2436  0.3588
  304CHL      H 1646   0.531   0.147   0.699  0.4564  0.0181  0.2705
  305CHL     CL 1647   1.305   2.169   0.585  0.3376 -0.3143 -0.2414
  305CHL      C 1648   1.438   2.188   0.709  0.0228  0.0680 -0.5229
  305CHL    CL1 1649   1.430   2.050   0.837 -0.6082 -0.3173  0.2652
  305CHL    CL2 1650   1.604   2.185   0.614  0.1590  0.1604  0.1490
  305CHL      H 1651   1.418   2.290   0.746  0.0889  1.1908 -3.3697
  306CHL     CL 1652   0.359   3.214   0.006 -0.3430  0.3104 -0.2187
  306CHL      C 1653   0.331   3.391   0.008  0.5049  0.3224  0.4985
  306CHL    CL1 1654   0.407   3.463  -0.140 -0.5089 -0.1078  0.2691
  306CHL    CL2 1655   0.156   3.410   0.001  0.2946 -0.4102  0.1613
  306CHL      H 1656   0.370   3.434   0.101  1.3163 -1.2774  0.9447
  307CHL     CL 1657   0.194   3.806   3.790  0.1791  0.2503  0.2900
  307CHL      C 1658   0.160   3.944   3.904 -0.4845 -0.2365 -0.0994
  307CHL    CL1 1659   0.076   4.076   3.809  0.0716 -0.3151  0.0144
  307CHL    CL2 1660   0.044   3.888   4.021  0.3781  0.5720  0.3701
  307CHL      H 1661   0.242   3.987   3.963 -0.1057 -0.9841 -0.0785
  308CHL     CL 1662   1.276   1.145   1.581 -0.0990  0.2181  0.3845
  308CHL      C 1663   1.175   1.289   1.545  0.6184 -0.3788 -0.4235
  308CHL    CL1 1664   1.001   1.246   1.581 -0.2263 -0.4528  0.1365
  308CHL    CL2 1665   1.217   1.430   1.642 -0.0546 -0.0756  0.5175
  308CHL      H 1666   1.171   1.324   1.442 -1.5105 -0.0983 -0.3100
  309CHL     CL 1667   1.499   2.681   2.740  0.3376 -0.0872  0.2092
  309CHL      C 1668   1.392   2.689   2.882  0.3354  0.7721  1.6214
  309CHL    CL1 1669   1.464   2.826   2.982  0.3893 -0.2759 -0.1334
  309CHL    CL2 1670   1.227   2.736   2.831 -0.4709 -0.0588  0.0206
  309CHL      H 1671   1.385   2.593   2.933  0.2287  0.0835  0.3507
  310CHL     CL 1672   2.827   2.240   3.273 -0.0366  0.1617  0.0766
  310CHL      C 1673   2.845   2.192   3.444 -0.0771 -0.2876 -0.3927
  310CHL    CL1 1674   2.711   2.088   3.488  0.0806  0.0747  0.2466
  310CHL    CL2 1675   2.995   2.090   3.460  0.1870  0.3136 -0.3081
  310CHL      H 1676   2.856   2.274   3.514  0.2480  0.4150 -1.2456
  311CHL     CL 1677   3.092   1.452   0.554 -0.2313  0.0555 -0.0017
  311CHL      C 1678   3.084   1.440   0.733 -0.4153 -0.4512  0.6396
  311CHL    CL1 1679   3.057   1.261   0.769  0.2389 -0.0679  0.0397
  311CHL    CL2 1680   3.236   1.500   0.812 -0.1739  0.1552 -0.3044
  311CHL      H 1681   3.003   1.498   0.779  3.0594  2.7055  3.3442
  312CHL     CL 1682   2.131   2.647   2.039  0.2655 -0.1135 -0.1650
  312CHL      C 1683   2.282   2.736   1.983 -0.3203  0.5069 -0.2950
  312CHL    CL1 1684   2.337   2.661   1.818 -0.0032 -0.0800  0.4734
  312CHL    CL2 1685   2.239   2.917   1.966  0.0139 -0.1334  0.2423
  312CHL      H 1686   2.352   2.729   2.067 -1.0136  2.7705  0.5440
  313CHL     CL 1687   1.867   0.586   2.049  0.0426 -0.0314 -0.0333
  313CHL      C 1688   1.899   0.561   1.884  0.1021  0.2946  0.0365
  313CHL    CL1 1689   1.743   0.530   1.811 -0.0560 -0.7009  0.0280
  313CHL    CL2 1690   1.990   0.693   1.813 -0.1068 -0.1806 -0.1338
  313CHL      H 1691   1.958   0.469   1.883 -0.8695 -0.3423 -0.1510
  314CHL     CL 1692   3.639   2.247   0.119 -0.1839 -0.0019 -0.2210
  314CHL      C 1693   3.607   2.339  -0.040  0.2655 -0.6998  0.3621
  314CHL    CL1 1694   3.490   2.476  -0.023 -0.1874  0.0149 -0.1938
  314CHL    CL2 1695   3.763   2.391  -0.113  0.0403  0.3515 -0.3266
  314CHL      H 1696   3.560   2.270  -0.111 -0.0843  0.9588 -1.0891
  315CHL     CL 1697   1.338   1.651   3.358  0.4387 -0.3819 -0.0784
  315CHL      C 1698   1.493   1.579   3.317 -0.0674  0.3379 -0.7146
  315CHL    CL1 1699   1.637   1.667   3.401  0.1848  0.1385 -0.2402
  315CHL    CL2 1700   1.480   1.408   3.368  0.1218 -0.1906  0.3015
  315CHL      H 1701   1.509   1.574   3.208  0.2817 -1.5552 -0.6095
  316CHL     CL 1702   0.026   3.209   0.949  0.1128  0.0766  0.2296
  316CHL      C 1703   0.157   3.109   0.885  0.2907 -0.0270  0.4605
  316CHL    CL1 1704   0.321   3.179   0.923  0.2751  0.6137 -0.6210
  316CHL    CL2 1705   0.151   2.935   0.943  0.2307  0.4877 -0.1182
  316CHL      H 1706   0.154   3.102   0.776  0.6215 -2.0845  0.5485
  317CHL     CL 1707   2.291   0.137   3.034 -0.1749  0.1360  0.0525
  317CHL      C 1708   2.167   0.015   3.042  0.0025 -0.1508  0.5069
  317CHL    CL1 1709   2.017   0.074   2.946 -0.2359 -0.0954 -0.0672
  317CHL    CL2 1710   2.225  -0.133   2.968  0.5863  0.3494  0.5690
  317CHL      H 1711   2.136  -0.013   3.143 -0.0298 -0.7173  0.3416
  318CHL     CL 1712   0.993   2.021   3.778 -0.2676 -0.4743 -0.1170
  318CHL      C 1713   0.974   2.021   3.600 -0.1579  0.0106  0.3654
  318CHL    CL1 1714   1.004   2.190   3.528 -0.2560 -0.1912  0.1717
  318CHL    CL2 1715   1.104   1.916   3.533 -0.2406 -0.0246 -0.2063
  318CHL      H 1716   0.878   1.981   3.569  0.4909 -0.6166 -0.8878
  319CHL     CL 1717   1.115   0.581   3.616  0.0439  0.5441 -0.0318
  319CHL      C 1718   1.200   0.509   3.464 -0.4570  0.3165 -0.8407
  319CHL    CL1 1719   1.217   0.625   3.328  0.1472  0.0737 -0.2452
  319CHL    CL2 1720   1.369   0.453   3.510 -0.1228 -0.0568  0.5993
  319CHL      H 1721   1.143   0.417   3.448 -1.4338  0.2382  2.3617
  320CHL     CL 1722   1.044   0.980   1.810  0.1797 -0.4107  0.2547
  320CHL      C 1723   0.956   0.972   1.976  0.0712 -0.7454  0.2344
  320CHL    CL1 1724   1.000   0.815   2.055 -0.0819  0.2228  0.0725
  320CHL    CL2 1725   1.018   1.104   2.088 -0.0716  0.1424 -0.4647
  320CHL      H 1726   0.849   0.982   1.957  0.2831 -0.3762 -0.8366
  321CHL     CL 1727   0.537   2.669   1.613 -0.2436 -0.7377 -0.0581
  321CHL      C 1728   0.478   2.517   1.698 -0.7473  0.4260  0.3691
  321CHL    CL1 1729   0.572   2.501   1.850  0.1076  0.0152 -0.1188
  321CHL    CL2 1730   0.304   2.513   1.718  0.0513 -0.2918  0.0607
  321CHL      H 1731   0.505   2.425   1.643  0.1218  1.2308 -0.5915
  322CHL     CL 1732   0.452   0.020   2.667  0.3501  0.3842 -0.0107
  322CHL      C 1733   0.533  -0.120   2.587 -0.1875 -0.2514 -0.0568
  322CHL    CL1 1734   0.488  -0.271   2.692  0.1182 -0.1589  0.2809
  322CHL    CL2 1735   0.499  -0.131   2.411 -0.3938 -0.4917 -0.1225
  322CHL      H 1736   0.640  -0.104   2.597 -0.0552 -0.7163 -0.6964
  323CHL     CL 1737   2.482   2.732   0.378  0.3699  0.1054 -0.2538
  323CHL      C 1738   2.420   2.912   0.387 -0.7921 -0.5929  0.4648
  323CHL    CL1 1739   2.414   3.000   0.232  0.3432  0.0140  0.0542
  323CHL    CL2 1740   2.258   2.902   0.458 -0.0482  0.2872  0.1027
  323CHL      H 1741   2.486   2.967   0.454 -2.3545  1.6268  0.2889
  324CHL     CL 1742   1.148   1.622   2.828  0.3120  0.0340  0.6111
  324CHL      C 1743   1.029   1.498   2.800 -0.7501 -0.2376 -0.6984
  324CHL    CL1 1744   0.983   1.426   2.950 -0.0887  0.1908  0.1189
  324CHL    CL2 1745   0.895   1.580   2.708 -0.1182  0.2560  0.5242
  324CHL      H 1746   1.063   1.408   2.749 -3.3160 -1.0569 -1.0844
  325CHL     CL 1747   2.312   2.286   2.683  0.2142 -0.3564 -0.3469
  325CHL      C 1748   2.154   2.209   2.712  0.1377  0.3354  0.0193
  325CHL    CL1 1749   2.019   2.299   2.631  0.1449 -0.2476 -0.3926
  325CHL    CL2 1750   2.157   2.041   2.636  0.0538  0.0781  0.2719
  325CHL      H 1751   2.132   2.198   2.819 -0.6889  1.0333 -0.0640
  326CHL     CL 1752   0.229   2.827   1.735  0.0941  0.0924  0.2750
  326CHL      C 1753   0.264   2.879   1.903  0.8357 -0.1117 -0.1478
  326CHL    CL1 1754   0.201   3.048   1.930 -0.4616  0.1079  0.0415
  326CHL    CL2 1755   0.198   2.747   2.017 -0.3705 -0.1896 -0.1432
  326CHL      H 1756   0.373   2.885   1.913  0.6882  0.1874  1.5531
  327CHL     CL 1757   2.809   3.575   0.275  0.1912 -0.2574  0.4793
  327CHL      C 1758   2.701   3.719   0.294 -0.0349  0.5666  0.1524
  327CHL    CL1 1759   2.799   3.864   0.322 -0.4205  0.0730  0.3749
  327CHL    CL2 1760   2.611   3.742   0.142 -0.2684  0.2144  0.3714
  327CHL      H 1761   2.628   3.699   0.373  0.0230  0.7517  0.2554
  328CHL     CL 1762   3.106   3.801   0.203 -0.0295 -0.0285  0.1273
  328CHL      C 1763   3.095   3.745   0.021  0.3932  0.4814 -0.3070
  328CHL    CL1 1764   2.989   3.863  -0.065  0.2791  0.3363  0.3372
  328CHL    CL2 1765   3.254   3.736  -0.052  0.1877  0.1813  0.0969
  328CHL      H 1766   3.050   3.645   0.022  5.0208 -1.9037  0.6373
  329CHL     CL 1767   1.985   0.124   0.790  0.0097 -0.5462  0.1337
  329CHL      C 1768   2.085   0.195   0.661  0.4249  0.5177  0.8928
  329CHL    CL1 1769   2.192   0.325   0.733  0.2850  0.2645  0.3907
  329CHL    CL2 1770   2.187   0.074   0.587  0.0044 -0.0106 -0.1245
  329CHL      H 1771   2.017   0.232   0.583  0.2733 -1.3859  0.0594
  330CHL     CL 1772   2.913   0.421   0.484  0.0618 -0.3818  0.1473
  330CHL      C 1773   3.020   0.434   0.330  0.9879 -0.0886  0.6391
  330CHL    CL1 1774   3.146   0.319   0.341 -0.1353 -0.4744  0.0350
  330CHL    CL2 1775   2.930   0.389   0.181 -0.0773  0.5526  0.0257
  330CHL      H 1776   3.070   0.530   0.314  2.1775 -0.9546 -1.2844
  331CHL     CL 1777   0.593   3.073   2.266 -0.1893  0.2536  0.0691
  331CHL      C 1778   0.596   3.127   2.441  0.1175  0.3011  0.2850
  331CHL    CL1 1779   0.767   3.100   2.499  0.2762 -0.5610  0.0383
  331CHL    CL2 1780   0.556   3.296   2.451 -0.0016 -0.2185 -0.7647
  331CHL      H 1781   0.529   3.072   2.509  0.1802  1.1888  1.0818
  332CHL     CL 1782   2.559   3.466   1.518 -0.5345  0.1570 -0.2843
  332CHL      C 1783   2.618   3.580   1.397 -0.0432  0.1824 -0.4443
  332CHL    CL1 1784   2.582   3.749   1.465 -0.2240  0.0842  0.0912
  332CHL    CL2 1785   2.796   3.557   1.364  0.2166 -0.1661  0.3393
  332CHL      H 1786   2.558   3.578   1.306  0.4508  0.3047 -0.7734
  333CHL     CL 1787   2.325   2.311   0.642  0.1136  0.3555  0.4288
  333CHL      C 1788   2.320   2.196   0.503  0.3604 -0.4123 -0.5978
  333CHL    CL1 1789   2.175   2.240   0.399 -0.2222  0.0479  0.0165
  333CHL    CL2 1790   2.463   2.214   0.400 -0.1539  0.0174 -0.0967
  333CHL      H 1791   2.313   2.093   0.538  1.6142 -0.0527  0.8105
  334CHL     CL 1792   0.744   2.985   1.526 -0.0723  0.1338 -0.0301
  334CHL      C 1793   0.575   3.030   1.495 -0.0401  0.4649 -0.9309
  334CHL    CL1 1794   0.499   3.066   1.654  0.2348 -0.5352 -0.2002
  334CHL    CL2 1795   0.562   3.166   1.374 -0.1302 -0.1655 -0.2655
  334CHL      H 1796   0.517   2.945   1.459 -0.0653  0.8297 -1.7630
  335CHL     CL 1797   3.430   2.635   1.129 -0.2135  0.1903  0.2385
  335CHL      C 1798   3.556   2.749   1.089 -0.7909 -0.8538 -0.2199
  335CHL    CL1 1799   3.564   2.865   1.230 -0.0426  0.5280  0.2548
  335CHL    CL2 1800   3.720   2.668   1.057 -0.1009 -0.2534  0.3545
  335CHL      H 1801   3.526   2.809   1.002  1.2214  1.7121  0.7108
  336CHL     CL 1802   2.313   0.006   2.265  0.1191  0.1743 -0.4728
  336CHL      C 1803   2.410   0.113   2.163  0.4363 -0.4619 -0.5547
  336CHL    CL1 1804   2.577   0.064   2.187 -0.0446 -0.1563 -0.1732
  336CHL    CL2 1805   2.359   0.083   1.991 -0.0427 -0.6503  0.0818
  336CHL      H 1806   2.389   0.216   2.193  2.4007  0.5068 -2.2702
  337CHL     CL 1807   1.678   0.435   2.945 -0.2272 -0.2861  0.1379
  337CHL      C 1808   1.857   0.386   2.949  0.7184  0.2347  0.6287
  337CHL    CL1 1809   1.935   0.470   2.824 -0.4163  0.0043  0.5014
  337CHL    CL2 1810   1.941   0.426   3.104  0.0754  0.0759  0.3671
  337CHL      H 1811   1.873   0.279   2.928  1.4941  0.7859 -1.9117
  338CHL     CL 1812   1.640   3.651   3.458 -0.0452  0.2620 -0.1693
  338CHL      C 1813   1.640   3.780   3.586 -0.3037  0.1124 -0.7772
  338CHL    CL1 1814   1.537   3.918   3.543  0.1191 -0.4733 -0.1801
  338CHL    CL2 1815   1.599   3.699   3.746 -0.2516  0.2074  0.1621
  338CHL      H 1816   1.744   3.810   3.603  0.5943 -1.0632 -3.6947
  339CHL     CL 1817   0.435   2.956   3.396  0.1682 -0.0750 -0.0130
  339CHL      C 1818   0.553   2.831   3.447  0.2126  0.0941 -0.3573
  339CHL    CL1 1819   0.491   2.750   3.606 -0.4978 -0.3316 -0.0056
  339CHL    CL2 1820   0.570   2.706   3.318 -0.3466  0.0323  0.2415
  339CHL      H 1821   0.654   2.871   3.462  0.5658 -1.0531  0.4054
  340CHL     CL 1822   1.059   0.465   2.181 -0.1987 -0.0194  0.0658
  340CHL      C 1823   1.022   0.554   2.337  0.4058  0.4681  0.2116
  340CHL    CL1 1824   1.108   0.706   2.362 -0.2853 -0.6238  0.0241
  340CHL    CL2 1825   0.839   0.562   2.351 -0.0483  0.1660  0.3369
  340CHL      H 1826   1.053   0.492   2.422 -1.3029  1.1415  1.3705
  341CHL     CL 1827   1.932   0.609   1.399 -0.4579 -0.4576  0.0541
  341CHL      C 1828   1.985   0.763   1.311 -0.0948  0.6415 -0.0597
  341CHL    CL1 1829   2.059   0.868   1.426 -0.2361 -0.1553 -0.1015
  341CHL    CL2 1830   2.106   0.732   1.187 -0.4498 -0.3287 -0.1008
  341CHL      H 1831   1.898   0.814   1.268  1.0945  1.9693 -0.9746
  342CHL     CL 1832   1.737   1.597   1.610 -0.1729 -0.0788 -0.0228
  342CHL      C 1833   1.580   1.566   1.687 -0.4508  0.1559  0.4250
  342CHL    CL1 1834   1.532   1.397   1.656 -0.2790  0.0033  0.3013
  342CHL    CL2 1835   1.596   1.600   1.856  0.1151  0.0291  0.0252
  342CHL      H 1836   1.500   1.623   1.637  0.1872 -0.2606 -1.1430
  343CHL     CL 1837   0.179   0.427   2.746 -0.0551  0.0425  0.2259
  343CHL      C 1838   0.175   0.421   2.925 -0.5228 -0.5955  0.1489
  343CHL    CL1 1839   0.064   0.542   3.007  0.0505 -0.1957  0.0141
  343CHL    CL2 1840   0.125   0.254   2.966  0.2684 -0.0484 -0.2152
  343CHL      H 1841   0.276   0.444   2.961 -1.1781 -1.3678  2.6766
  344CHL     CL 1842   1.009   1.310   2.526  0.0667  0.1155 -0.2403
  344CHL      C 1843   1.104   1.206   2.425  0.1700  0.0444  0.6198
  344CHL    CL1 1844   1.277   1.216   2.465 -0.0175 -0.2854 -0.1440
  344CHL    CL2 1845   1.043   1.033   2.457  0.0168  0.3542 -0.0829
  344CHL      H 1846   1.093   1.226   2.318  1.8658  1.4313  0.6500
  345CHL     CL 1847   2.678   0.946   0.994  0.1852  0.1864 -0.4008
  345CHL      C 1848   2.698   1.029   0.837  0.0019  0.1409  0.4316
  345CHL    CL1 1849   2.793   0.923   0.731 -0.1327 -0.1168 -0.4236
  345CHL    CL2 1850   2.543   1.080   0.767 -0.0970 -0.2587  0.2660
  345CHL      H 1851   2.753   1.119   0.866  0.1666 -0.5929  2.5316
  346CHL     CL 1852   0.943   2.203   0.239 -0.2694 -0.3512  0.1379
  346CHL      C 1853   0.977   2.154   0.413 -0.0685 -0.5370  0.3051
  346CHL    CL1 1854   1.008   2.296   0.522  0.3760  0.0057 -0.0560
  346CHL    CL2 1855   0.851   2.057   0.483 -0.2211 -0.4605  0.1275
  346CHL      H 1856   1.069   2.095   0.418 -0.6630 -1.4933  0.3479
  347CHL     CL 1857   1.883   3.450   3.571 -0.3415 -0.2836 -0.0092
  347CHL      C 1858   1.960   3.442   3.408 -0.1460 -0.3389  0.1110
  347CHL    CL1 1859   1.965   3.611   3.340 -0.1766 -0.2287  0.3381
  347CHL    CL2 1860   2.127   3.370   3.418 -0.1360 -0.6027  0.0164
  347CHL      H 1861   1.901   3.381   3.339 -0.2439 -1.6125  1.2939
  348CHL     CL 1862   0.574   3.069   2.782 -0.1793 -0.0219  0.2068
  348CHL      C 1863   0.701   3.007   2.894 -0.0339  0.2413  0.0489
  348CHL    CL1 1864   0.642   2.866   2.983  0.1096  0.0672  0.4423
  348CHL    CL2 1865   0.856   2.977   2.803 -0.1718  0.5787 -0.3586
  348CHL      H 1866   0.716   3.078   2.976  1.8316  0.4154 -0.4023
  349CHL     CL 1867   0.886   3.283   3.028  0.0455 -0.1402  0.1536
  349CHL      C 1868   0.841   3.401   2.905  0.9144  0.2896 -0.7323
  349CHL    CL1 1869   0.837   3.327   2.741  0.4358  0.2798 -0.2474
  349CHL    CL2 1870   0.678   3.468   2.955 -0.2723 -0.2427  0.1968
  349CHL      H 1871   0.912   3.484   2.905  1.4300 -0.0941  1.4015
  350CHL     CL 1872   1.458   3.331   3.451  0.0869 -0.0378  0.2231
  350CHL      C 1873   1.413   3.349   3.626 -0.3632 -0.5349 -0.6633
  350CHL    CL1 1874   1.291   3.488   3.621  0.1052  0.0506  0.2288
  350CHL    CL2 1875   1.348   3.197   3.686 -0.2643 -0.1504  0.3511
  350CHL      H 1876   1.501   3.382   3.682 -0.7073 -0.5131 -0.1327
  351CHL     CL 1877   2.806   3.205   2.589  0.0903  0.1792 -0.0396
  351CHL      C 1878   2.710   3.051   2.595  0.0584  0.2173 -0.4822
  351CHL    CL1 1879   2.789   2.918   2.682 -0.3338  0.0421 -0.2570
  351CHL    CL2 1880   2.543   3.065   2.670  0.2058  0.4537  0.1861
  351CHL      H 1881   2.683   3.018   2.494  1.0777  0.0186 -0.7012
  352CHL     CL 1882   0.051   2.168   2.422 -0.1308 -0.0183 -0.7463
  352CHL      C 1883   0.098   2.298   2.545 -0.1515 -0.5614  0.2441
  352CHL    CL1 1884   0.266   2.275   2.596 -0.2796  0.1363  0.4409
  352CHL    CL2 1885   0.084   2.464   2.476  0.3937  0.4443  0.2139
  352CHL      H 1886   0.034   2.291   2.633  0.5372  1.3879  0.9458
  353CHL     CL 1887   3.362   1.859   2.139  0.0485  0.1862 -0.0789
  353CHL      C 1888   3.417   1.985   2.032  0.1752  0.6740  0.1887
  353CHL    CL1 1889   3.320   2.003   1.883  0.4036 -0.2413  0.2107
  353CHL    CL2 1890   3.401   2.143   2.120  0.3310  0.3867 -0.1345
  353CHL      H 1891   3.523   1.967   2.012  0.0606 -0.4339  0.5216
  354CHL     CL 1892   1.527   0.177   0.141 -0.0876 -0.2247 -0.1764
  354CHL      C 1893   1.697   0.178   0.215  0.2902 -0.6052  0.3021
  354CHL    CL1 1894   1.673   0.259   0.373 -0.2345  0.1626 -0.4108
  354CHL    CL2 1895   1.753   0.016   0.244 -0.0211  0.3446  0.4460
  354CHL      H 1896   1.776   0.234   0.164  0.0883 -1.0351 -0.4902
  355CHL     CL 1897   2.950   0.713   3.436  0.1503  0.3011  0.2397
  355CHL      C 1898   2.921   0.700   3.611  0.4414  0.4631 -0.1127
  355CHL    CL1 1899   2.811   0.829   3.654  0.3318 -0.2820 -0.2219
  355CHL    CL2 1900   2.830   0.545   3.652 -0.0017 -0.1112 -0.2163
  355CHL      H 1901   3.013   0.700   3.671  0.2082 -1.7820  0.3332
  356CHL     CL 1902   1.760   1.151   3.771  0.3416  0.1983  0.4105
  356CHL      C 1903   1.878   1.130   3.901  0.4641 -0.1222 -0.2484
  356CHL    CL1 1904   1.847   1.238   4.040  0.1896 -0.0651  0.1077
  356CHL    CL2 1905   1.892   0.952   3.951  0.0487 -0.0026 -0.0642
  356CHL      H 1906   1.975   1.149   3.853  0.0996  0.3067 -0.8172
  357CHL     CL 1907   1.864   1.900   1.461  0.0804 -0.1352 -0.2955
  357CHL      C 1908   1.845   1.956   1.629  0.1935  0.4753 -0.2071
  357CHL    CL1 1909   1.679   1.974   1.667  0.1487  0.2161 -0.1137
  357CHL    CL2 1910   1.923   1.830   1.734 -0.0306  0.3608 -0.5382
  357CHL      H 1911   1.898   2.051   1.640  0.0730  0.4627  0.4991
  358CHL     CL 1912   0.303   1.918   3.769  0.2515  0.2900 -0.0542
  358CHL      C 1913   0.152   1.994   3.736  0.4509 -0.2406  0.2549
  358CHL    CL1 1914   0.171   2.117   3.611  0.2195 -0.1314  0.0138
  358CHL    CL2 1915   0.029   1.866   3.685  0.0112 -0.2187 -0.1695
  358CHL      H 1916   0.121   2.039   3.831  0.8650 -4.0969  2.4306
  359CHL     CL 1917   0.072   2.847   0.193  0.1933 -0.2538 -0.1694
  359CHL      C 1918   0.081   2.783   0.028  0.3445 -0.5598  1.3435
  359CHL    CL1 1919   0.169   2.901  -0.082 -0.0888  0.1135  0.3474
  359CHL    CL2 1920   0.174   2.637   0.021 -0.3989  0.1800 -0.1377
  359CHL      H 1921  -0.019   2.772  -0.016  0.3198  1.5207  0.7458
  360CHL     CL 1922   3.692   2.798   2.224  0.3055 -0.1360  0.0724
  360CHL      C 1923   3.681   2.634   2.143  0.6264 -0.4687  0.6028
  360CHL    CL1 1924   3.626   2.504   2.262  0.3548  0.1848 -0.2257
  360CHL    CL2 1925   3.562   2.649   2.005  0.0183  0.2411 -0.0794
  360CHL      H 1926   3.780   2.607   2.107  0.2966 -0.3321 -0.4412
  361CHL     CL 1927   0.490   1.634   1.129  0.0097 -0.2240  0.0430
  361CHL      C 1928   0.578   1.779   1.064 -0.4876 -0.1565  0.1006
  361CHL    CL1 1929   0.641   1.881   1.197 -0.0209  0.4815  0.0924
  361CHL    CL2 1930   0.714   1.717   0.949  0.3327  0.3020  0.2864
  361CHL      H 1931   0.507   1.833   1.000  0.7649 -0.2125 -1.4120
  362CHL     CL 1932   3.792   3.571   0.360  0.1396  0.2912  0.4209
  362CHL      C 1933   3.851   3.417   0.432  0.2349  0.5463 -0.0660
  362CHL    CL1 1934   3.840   3.287   0.311 -0.1904 -0.4643 -0.0781
  362CHL    CL2 1935   4.020   3.436   0.491  0.2487 -0.3122 -0.0418
  362CHL      H 1936   3.783   3.385   0.510 -1.5488 -0.0312 -1.7754
  363CHL     CL 1937   1.117   3.412   0.967 -0.1524  0.3814 -0.4453
  363CHL      C 1938   1.028   3.573   0.932  0.2936 -0.5078  0.2003
  363CHL    CL1 1939   0.922   3.567   0.785 -0.1472  0.1726 -0.3429
  363CHL    CL2 1940   0.927   3.618   1.082 -0.0361 -0.6916  0.0666
  363CHL      H 1941   1.107   3.647   0.913  0.1929 -0.8242 -1.6504
  364CHL     CL 1942   2.004   2.718   2.453 -0.0724  0.0460  0.0089
  364CHL      C 1943   2.173   2.671   2.420  0.1417  0.2629 -0.4608
  364CHL    CL1 1944   2.263   2.806   2.346  0.2824  0.1869  0.0703
  364CHL    CL2 1945   2.255   2.642   2.573 -0.5834 -0.2940  0.1098
  364CHL      H 1946   2.177   2.584   2.354 -0.2700  0.4324 -0.7197
  365CHL     CL 1947   0.604   3.737   1.058 -0.0765 -0.1504 -0.4962
  365CHL      C 1948   0.505   3.665   1.194  0.2706  0.4738  0.1210
  365CHL    CL1 1949   0.531   3.774   1.336 -0.3759 -0.1588  0.1830
  365CHL    CL2 1950   0.326   3.680   1.153 -0.1686 -0.1882  0.0992
  365CHL      H 1951   0.530   3.560   1.209 -2.3767 -0.2200  0.2211
  366CHL     CL 1952   2.747   1.420   0.702 -0.1940 -0.3380  0.1342
  366CHL      C 1953   2.657   1.446   0.854  0.4607  0.1833  0.2603
  366CHL    CL1 1954   2.764   1.408   0.993 -0.2320 -0.4040 -0.3238
  366CHL    CL2 1955   2.628   1.624   0.881 -0.2102  0.2521  0.3926
  366CHL      H 1956   2.564   1.388   0.855  1.3541 -1.2716  0.5528
  367CHL     CL 1957   3.095   2.788   1.637  0.2522  0.1345  0.0329
  367CHL      C 1958   3.198   2.866   1.504 -0.1958 -0.3183  0.1884
  367CHL    CL1 1959   3.370   2.822   1.523 -0.1068 -0.1317  0.3985
  367CHL    CL2 1960   3.143   2.801   1.344  0.1505 -0.0958  0.0071
  367CHL      H 1961   3.185   2.975   1.502 -0.6736 -0.3799 -0.1857
  368CHL     CL 1962   1.653   2.168   1.190  0.0996  0.2263  0.4019
  368CHL      C 1963   1.603   2.270   1.328  0.2101  0.1139  0.5488
  368CHL    CL1 1964   1.729   2.253   1.461 -0.0587  0.2449 -0.0464
  368CHL    CL2 1965   1.586   2.439   1.270  0.0162  0.0030  0.1910
  368CHL      H 1966   1.507   2.235   1.369  0.5451 -0.5268  0.8036
  369CHL     CL 1967   3.770   1.753   1.085  0.3552  0.2863  0.6323
  369CHL      C 1968   3.772   1.709   0.909 -0.1753  1.0287  0.7525
  369CHL    CL1 1969   3.913   1.617   0.844 -0.3764 -0.2277  0.1184
  369CHL    CL2 1970   3.628   1.610   0.877  0.2223  0.1118 -0.1554
  369CHL      H 1971   3.756   1.799   0.849 -2.4289 -0.2258 -0.7054
  370CHL     CL 1972   3.700   3.261   2.971 -0.1623  0.3787  0.2487
  370CHL      C 1973   3.580   3.231   3.107 -0.0559 -0.3662  0.7042
  370CHL    CL1 1974   3.463   3.366   3.120 -0.1847 -0.1640  0.2283
  370CHL    CL2 1975   3.501   3.072   3.079 -0.1388 -0.4780  0.2162
  370CHL      H 1976   3.638   3.243   3.200  0.2216  2.3466  0.2606
  371CHL     CL 1977   3.276   1.047   3.167  0.0504  0.0194  0.3024
  371CHL      C 1978   3.112   0.975   3.107 -0.3844 -1.0192  0.5138
  371CHL    CL1 1979   3.134   0.794   3.078 -0.1406 -0.1436 -0.2714
  371CHL    CL2 1980   2.987   1.006   3.233 -0.6034  0.5724 -0.0544
  371CHL      H 1981   3.078   1.024   3.015 -2.1523  0.4059  1.8540
  372CHL     CL 1982   0.383   0.834   1.201  0.3472 -0.0794  0.2184
  372CHL      C 1983   0.335   0.678   1.146  0.1046  0.6885 -0.5981
  372CHL    CL1 1984   0.400   0.644   0.981 -0.4007  0.5283  0.1829
  372CHL    CL2 1985   0.383   0.552   1.269  0.2269 -0.5686 -0.1767
  372CHL      H 1986   0.226   0.677   1.140  0.0332  1.6088  0.4255
  373CHL     CL 1987   2.231   0.601   2.326 -0.2461  0.1272 -0.6206
  373CHL      C 1988   2.151   0.749   2.257  0.6573 -0.7506 -0.2079
  373CHL    CL1 1989   2.168   0.892   2.363 -0.1607 -0.2355 -0.5164
  373CHL    CL2 1990   2.228   0.786   2.099  0.2870  0.0859  0.1058
  373CHL      H 1991   2.042   0.736   2.248  0.5822 -0.1174 -0.3189
  374CHL     CL 1992   2.501   0.498   1.972  0.2421  0.5089  0.2074
  374CHL      C 1993   2.354   0.534   1.876 -0.1040  0.1629 -0.0775
  374CHL    CL1 1994   2.389   0.485   1.707 -0.1151 -0.2096 -0.0749
  374CHL    CL2 1995   2.209   0.447   1.944  0.0566  0.0816 -0.5898
  374CHL      H 1996   2.331   0.641   1.886 -1.5000 -0.2529  1.7431
  375CHL     CL 1997   2.983   2.265   1.061 -0.0291  0.4564 -0.0948
  375CHL      C 1998   2.910   2.172   0.924  0.2341 -0.0274  0.7078
  375CHL    CL1 1999   3.017   2.187   0.778 -0.6224  0.2450  0.0469
  375CHL    CL2 2000   2.893   2.002   0.985 -0.1709  0.2380 -0.2749
  375CHL      H 2001   2.808   2.211   0.909  0.1252  0.5115  2.6002
  376CHL     CL 2002   2.369   0.700   0.413 -0.0247 -0.1190 -0.4318
  376CHL      C 2003   2.495   0.789   0.505  0.8821  0.2071 -0.4828
  376CHL    CL1 2004   2.613   0.658   0.552 -0.0711  0.0350 -0.2622
  376CHL    CL2 2005   2.565   0.916   0.400  0.1528  0.0302 -0.2857
  376CHL      H 2006   2.447   0.834   0.592  0.4907  1.3444 -1.2517
  377CHL     CL 2007   2.086   2.078   0.096 -0.4682  0.1852 -0.1197
  377CHL      C 2008   1.947   1.967   0.066 -0.8916  0.0552 -0.4443
  377CHL    CL1 2009   1.859   2.024  -0.085 -0.0263 -0.0447  0.0057
  377CHL    CL2 2010   2.026   1.812   0.021  0.2170  0.3193  0.5737
  377CHL      H 2011   1.879   1.952   0.151 -0.1670  0.8958  0.3020
  378CHL     CL 2012   3.232   0.441   0.806  0.0913 -0.2890 -0.4895
  378CHL      C 2013   3.295   0.346   0.666  0.3335 -0.1979 -0.1623
  378CHL    CL1 2014   3.478   0.323   0.685 -0.2060 -0.2905 -0.0296
  378CHL    CL2 2015   3.218   0.185   0.664  0.1615  0.2299  0.1855
  378CHL      H 2016   3.274   0.405   0.576 -0.2284  0.4621  0.3845
  379CHL     CL 2017   3.800   0.274   0.512  0.2260  0.8184  0.1225
  379CHL      C 2018   3.816   0.445   0.473 -0.4320 -0.0089 -0.0224
  379CHL    CL1 2019   3.722   0.469   0.320 -0.4008  0.2044  0.2231
  379CHL    CL2 2020   3.745   0.537   0.605  0.6788 -0.2165  0.0069
  379CHL      H 2021   3.920   0.478   0.462 -0.5424  0.3543  0.0174
  380CHL     CL 2022   2.901   0.342   3.368 -0.0040  0.2655 -0.0217
  380CHL      C 2023   2.815   0.448   3.243  0.0276 -0.2286  0.1108
  380CHL    CL1 2024   2.933   0.503   3.115  0.0193 -0.0710 -0.1039
  380CHL    CL2 2025   2.680   0.363   3.157  0.0216 -0.1548 -0.2233
  380CHL      H 2026   2.769   0.537   3.287  1.8552  0.9787 -0.3273
  381CHL     CL 2027   0.628   1.715   3.355  0.0618 -0.4887 -0.3282
  381CHL      C 2028   0.509   1.576   3.385 -0.1357  0.2651  0.3937
  381CHL    CL1 2029   0.498   1.458   3.253 -0.0196  0.0001  0.5757
  381CHL    CL2 2030   0.551   1.478   3.534  0.1576 -0.5598  0.0096
  381CHL      H 2031   0.410   1.618   3.400 -0.4692 -0.7440  1.0990
  382CHL     CL 2032   0.758   0.989   1.056  0.3491  0.4037 -0.0927
  382CHL      C 2033   0.742   1.143   1.152  0.6969 -0.2412 -0.7885
  382CHL    CL1 2034   0.575   1.181   1.206  0.6663  0.1389 -0.0775
  382CHL    CL2 2035   0.854   1.133   1.287 -0.3507 -0.2967 -0.5183
  382CHL      H 2036   0.771   1.221   1.081  0.8467 -0.5952 -1.1243
  383CHL     CL 2037   1.674   0.688   1.162 -0.5041  0.1608 -0.0524
  383CHL      C 2038   1.710   0.635   0.994 -0.0707 -0.3750 -0.0995
  383CHL    CL1 2039   1.778   0.772   0.894  0.0025 -0.0895 -0.2822
  383CHL    CL2 2040   1.806   0.496   0.978 -0.2872 -0.0922  0.3960
  383CHL      H 2041   1.620   0.616   0.934  0.0376  0.9851 -0.7329
  384CHL     CL 2042   2.854   0.475   1.802  0.0956  0.3089  0.4034
  384CHL      C 2043   2.945   0.599   1.887 -0.6140  0.0646 -0.2915
  384CHL    CL1 2044   3.024   0.540   2.034 -0.2469 -0.2586  0.1927
  384CHL    CL2 2045   3.060   0.678   1.779  0.0631  0.6027 -0.4594
  384CHL      H 2046   2.866   0.661   1.929 -1.0171 -1.6642  1.6810
  385CHL     CL 2047   0.607   3.592   1.643 -0.4531 -0.3983  0.2427
  385CHL      C 2048   0.445   3.491   1.635 -0.7111  0.1014  0.0652
  385CHL    CL1 2049   0.321   3.542   1.745  0.2773 -0.1146 -0.1994
  385CHL    CL2 2050   0.376   3.505   1.465 -0.0838  0.2902 -0.0502
  385CHL      H 2051   0.461   3.384   1.647  1.1199  0.5067  1.6609
  386CHL     CL 2052   3.096   0.146   1.032 -0.2623 -0.1407  0.3799
  386CHL      C 2053   3.061  -0.013   0.967 -0.2346 -0.5970 -0.0075
  386CHL    CL1 2054   3.210  -0.109   0.996 -0.3637  0.2125 -0.1671
  386CHL    CL2 2055   2.917  -0.093   1.050  0.4010 -0.0483  0.1737
  386CHL      H 2056   3.041  -0.018   0.860  1.1687 -2.1926 -0.2274
  387CHL     CL 2057   2.515   1.782   3.212  0.2370  0.0049 -0.2074
  387CHL      C 2058   2.481   1.704   3.056  0.3979  0.4430 -0.7836
  387CHL    CL1 2059   2.330   1.785   2.987 -0.0735  0.0006 -0.4120
  387CHL    CL2 2060   2.621   1.732   2.952  0.0785  0.0189  0.0174
  387CHL      H 2061   2.459   1.599   3.076  1.2962  0.0179 -1.9354
  388CHL     CL 2062   0.449   1.878   1.900  0.3216  0.1758  0.0594
  388CHL      C 2063   0.548   1.979   1.797 -0.2026  0.2238  0.0241
  388CHL    CL1 2064   0.581   1.915   1.624  0.4500 -0.0766 -0.2630
  388CHL    CL2 2065   0.494   2.143   1.799 -0.1359  0.4697 -0.3331
  388CHL      H 2066   0.645   1.983   1.847 -0.5259  0.1555  0.6573
  389CHL     CL 2067   3.508   3.547   1.711 -0.2390  0.4037 -0.4302
  389CHL      C 2068   3.675   3.539   1.812  0.6490  0.0760  0.1189
  389CHL    CL1 2069   3.764   3.404   1.739  0.0931  0.0384  0.2368
  389CHL    CL2 2070   3.769   3.690   1.795  0.1380  0.3532  0.5225
  389CHL      H 2071   3.669   3.517   1.919  3.3783 -0.7065  0.1865
  390CHL     CL 2072   0.529   2.488   0.528 -0.1325  0.3195  0.1811
  390CHL      C 2073   0.668   2.553   0.620  0.5983  0.7159 -0.1195
  390CHL    CL1 2074   0.703   2.725   0.570 -0.2784  0.0100 -0.0299
  390CHL    CL2 2075   0.641   2.520   0.804  0.0173 -0.0334  0.5153
  390CHL      H 2076   0.756   2.491   0.600 -1.0045 -1.1473 -1.8173
  391CHL     CL 2077   3.483   3.240   0.183 -0.5983  0.2417  0.1184
  391CHL      C 2078   3.579   3.090   0.151  0.0586 -0.0934  0.3336
  391CHL    CL1 2079   3.549   2.970   0.286 -0.0850 -0.6605 -0.1770
  391CHL    CL2 2080   3.541   3.020  -0.012 -0.1548  0.2201  0.5330
  391CHL      H 2081   3.684   3.118   0.146  0.2451 -0.6873  0.7538
  392CHL     CL 2082   0.668   3.264   1.915  0.0647 -0.1327  0.2115
  392CHL      C 2083   0.589   3.398   2.005  0.2657 -0.6522 -0.6014
  392CHL    CL1 2084   0.432   3.326   2.063 -0.3800 -0.1155  0.1479
  392CHL    CL2 2085   0.691   3.474   2.134  0.2700  0.0481  0.5540
  392CHL      H 2086   0.570   3.481   1.936 -0.3704  1.1973  1.6651
  393CHL     CL 2087   1.884   2.620   0.952  0.1611 -0.3734 -0.0187
  393CHL      C 2088   1.812   2.529   0.817 -0.2212  0.0632  0.1053
  393CHL    CL1 2089   1.901   2.379   0.787 -0.4339 -0.1875 -0.0690
  393CHL    CL2 2090   1.639   2.512   0.841 -0.0810 -0.3819  0.1354
  393CHL      H 2091   1.825   2.599   0.734  1.3501  1.0895  1.1517
  394CHL     CL 2092   2.564   0.429   2.742 -0.2506  0.1122  0.1296
  394CHL      C 2093   2.567   0.606   2.774  0.0579 -0.5972  0.3262
  394CHL    CL1 2094   2.408   0.684   2.740  0.1625 -0.3616  0.3241
  394CHL    CL2 2095   2.613   0.647   2.939 -0.5133 -0.3701  0.0377
  394CHL      H 2096   2.638   0.659   2.710 -1.7036  3.2019  1.2591
  395CHL     CL 2097   1.272   0.061   0.988  0.1070 -0.6532 -0.2292
  395CHL      C 2098   1.222   0.153   1.144 -0.4099  0.2683 -0.5075
  395CHL    CL1 2099   1.359   0.186   1.243 -0.1576 -0.1222  0.0567
  395CHL    CL2 2100   1.140   0.315   1.121  0.0262  0.2921 -0.0273
  395CHL      H 2101   1.147   0.096   1.201 -2.3036  4.0467  1.0943
  396CHL     CL 2102   2.274   0.071   1.250 -0.3174  0.0601 -0.2400
  396CHL      C 2103   2.400   0.091   1.124  0.9865  0.2223 -0.5458
  396CHL    CL1 2104   2.498  -0.056   1.111  0.0211 -0.8005  0.1029
  396CHL    CL2 2105   2.332   0.125   0.959 -0.0360  0.0899  0.1663
  396CHL      H 2106   2.465   0.172   1.158  0.8140 -0.1699  0.7625
  397CL      CL 2107   1.072   3.655   2.758 -0.2211  0.4457 -0.0314
   3.80717   3.80717   3.80717
