nspe_7_1 in water
 2117
    1H02      N    1   2.106   3.285   2.398  0.0701  0.8526  0.1622
    1H02     C1    2   2.113   3.285   2.253 -0.5142  0.0673 -0.3194
    1H02     C2    3   2.026   3.385   2.185 -0.1690 -0.0168  0.4122
    1H02     C3    4   2.261   3.297   2.199 -0.3393  0.0538 -0.1687
    1H02     C4    5   2.298   3.217   2.094  0.0813 -0.9520  0.1520
    1H02     C5    6   2.430   3.225   2.045 -0.2978 -0.0101  0.5505
    1H02     C6    7   2.523   3.314   2.104 -0.8618 -0.1381 -0.1359
    1H02     C7    8   2.485   3.393   2.215 -0.1132  0.1476 -0.2593
    1H02     C8    9   2.350   3.384   2.265  0.6873  0.3396 -0.3205
    1H02     CA   10   1.973   3.265   2.463 -0.7564  0.8941 -0.2938
    1H02      C   11   1.982   3.144   2.556  0.0989  1.3920 -0.0368
    1H02      O   12   2.092   3.086   2.578 -0.0040 -0.2036  0.3321
    1H02     H1   13   2.144   3.375   2.424  0.2313  1.5185 -2.1498
    1H02     H2   14   2.165   3.209   2.429 -0.2402  0.0549 -1.0833
    1H02     H3   15   2.082   3.189   2.210 -4.0519  0.0926  1.8205
    1H02     H4   16   2.046   3.387   2.077 -0.0065  0.0404  0.4433
    1H02     H5   17   2.044   3.488   2.218  2.9370 -1.2874  3.3141
    1H02     H6   18   1.920   3.366   2.209 -0.0694  0.0256  0.8929
    1H02     H7   19   2.225   3.142   2.065 -1.5593 -0.0933  1.8430
    1H02     H8   20   2.458   3.154   1.968 -1.1130 -0.2251  0.4504
    1H02     H9   21   2.615   3.323   2.047  0.1578 -2.0666  1.1004
    1H02    H10   22   2.550   3.475   2.246 -0.6852  0.7649 -0.6631
    1H02    H11   23   2.315   3.449   2.345  0.0442 -0.6353  0.2066
    1H02    H12   24   1.901   3.246   2.383  0.3089 -0.0547 -1.0572
    1H02    H13   25   1.957   3.352   2.528 -0.4532  0.4177  0.4287
    2R02      N   26   1.869   3.105   2.625  0.5002  0.2301 -0.4051
    2R02     C1   27   1.737   3.167   2.617 -0.1285 -0.0748  0.4043
    2R02     H1   28   1.716   3.179   2.510  0.2676  0.4079  0.3780
    2R02     C2   29   1.609   3.080   2.665 -0.4022 -0.3226  0.3184
    2R02     H2   30   1.519   3.135   2.634 -0.5798 -1.4981 -1.3508
    2R02     H3   31   1.608   3.078   2.775 -0.5801  1.0641  0.3643
    2R02     H4   32   1.608   2.978   2.626 -1.6848 -0.6757  1.2027
    2R02     C3   33   1.733   3.305   2.681 -0.5934 -0.4227  0.4439
    2R02     C4   34   1.807   3.333   2.799  0.2541 -0.1017 -0.3054
    2R02     H5   35   1.848   3.261   2.870 -0.3967  0.8197  1.0456
    2R02     C5   36   1.787   3.453   2.861 -0.9476 -0.9637  0.0383
    2R02     H6   37   1.814   3.470   2.965 -0.3208  1.1083 -0.4110
    2R02     C6   38   1.719   3.560   2.796 -0.4882 -0.0146 -0.1195
    2R02     H7   39   1.708   3.658   2.841  0.6620  1.3764 -2.6781
    2R02     C7   40   1.665   3.539   2.665  0.3418  0.4110  0.3660
    2R02     H8   41   1.617   3.623   2.616 -0.0149 -0.2234 -0.3909
    2R02     C8   42   1.673   3.412   2.603 -0.1057 -0.6474  0.3891
    2R02     H9   43   1.621   3.392   2.509  0.5872  1.5552 -0.5481
    2R02     CA   44   1.891   2.988   2.716 -0.5354 -0.1271 -0.6089
    2R02    H10   45   1.809   2.981   2.788 -0.5677  0.9726 -0.5219
    2R02    H11   46   1.985   3.009   2.769  1.3368 -3.9058 -2.0654
    2R02      C   47   1.893   2.865   2.623 -0.2388  0.2969  0.4996
    2R02      O   48   1.854   2.874   2.512 -0.2642 -0.5367 -0.4167
    3R02      N   49   1.949   2.744   2.679  0.2018 -0.6857 -0.9014
    3R02     C1   50   2.004   2.736   2.821  0.4850  0.5172 -0.4817
    3R02     H1   51   1.928   2.782   2.886  2.4472  0.9003  1.6761
    3R02     C2   52   2.029   2.594   2.872 -0.4967 -0.3469  0.1092
    3R02     H2   53   2.089   2.524   2.812 -0.9927 -2.0293  1.4930
    3R02     H3   54   1.937   2.536   2.888  0.1064 -1.3833 -0.0434
    3R02     H4   55   2.086   2.601   2.965 -0.7171  0.7873  0.1727
    3R02     C3   56   2.125   2.812   2.834  0.5396  0.2270 -0.0834
    3R02     C4   57   2.227   2.791   2.741  0.2424 -0.1698  0.0937
    3R02     H5   58   2.222   2.724   2.657  1.5993  0.1736 -0.2897
    3R02     C5   59   2.342   2.866   2.750  0.0346 -0.4212  0.3791
    3R02     H6   60   2.424   2.839   2.684  0.3549 -1.8720  1.3270
    3R02     C6   61   2.363   2.946   2.864  0.2350 -0.7469  0.1183
    3R02     H7   62   2.458   2.997   2.874 -0.3481  0.3017  0.3946
    3R02     C7   63   2.258   2.977   2.952 -0.2049 -0.0163 -0.1867
    3R02     H8   64   2.284   3.053   3.025  0.2037  0.8788 -1.2172
    3R02     C8   65   2.138   2.909   2.936 -0.3566  0.0324 -0.2447
    3R02     H9   66   2.056   2.935   3.002 -0.7384 -0.2618 -0.5901
    3R02     CA   67   1.945   2.621   2.599 -0.2504 -0.3683 -0.0849
    3R02    H10   68   2.029   2.559   2.634  0.8005  1.3185  0.5120
    3R02    H11   69   1.935   2.643   2.492 -0.4117  0.4329  0.0942
    3R02      C   70   1.810   2.547   2.644 -0.2950 -0.9724 -0.6275
    3R02      O   71   1.741   2.596   2.736  0.4739  0.2198  0.2877
    4R02      N   72   1.791   2.422   2.594 -0.4600 -0.1764  0.4223
    4R02     C1   73   1.689   2.340   2.659 -0.5211  0.1916 -0.0522
    4R02     H1   74   1.598   2.395   2.686 -0.1503  2.4840 -3.0150
    4R02     C2   75   1.639   2.219   2.582 -0.2997  0.0750 -0.1956
    4R02     H2   76   1.715   2.143   2.562 -0.6142 -0.7236  1.4407
    4R02     H3   77   1.595   2.254   2.488  1.6282 -0.4516 -1.3554
    4R02     H4   78   1.559   2.165   2.635 -0.1073  0.8999  0.9838
    4R02     C3   79   1.753   2.288   2.788  0.7009  0.0324  0.1041
    4R02     C4   80   1.893   2.262   2.802  0.4212 -0.5480  0.2065
    4R02     H5   81   1.952   2.254   2.712 -2.1749  2.2629 -1.9288
    4R02     C5   82   1.942   2.208   2.926 -0.4761 -1.1576 -0.3396
    4R02     H6   83   2.045   2.181   2.943  0.1086  1.1661  0.1949
    4R02     C6   84   1.863   2.208   3.037 -0.2894 -0.4109  0.0550
    4R02     H7   85   1.912   2.181   3.130 -1.3387  1.5167  1.2419
    4R02     C7   86   1.727   2.242   3.022 -0.4145  0.5466 -0.8800
    4R02     H8   87   1.660   2.244   3.107 -0.2870  0.7044 -0.7843
    4R02     C8   88   1.670   2.276   2.899  0.2420 -0.1061  0.5613
    4R02     H9   89   1.564   2.301   2.904  0.2231 -0.0392 -0.0685
    4R02     CA   90   1.881   2.361   2.488 -0.4014 -0.7436 -0.0921
    4R02    H10   91   1.880   2.251   2.479  0.7992 -0.8568  0.8937
    4R02    H11   92   1.987   2.385   2.501  0.1194 -1.7566 -2.0616
    4R02      C   93   1.833   2.424   2.350 -0.4636 -0.5186  0.6133
    4R02      O   94   1.786   2.541   2.336 -0.1977  0.5878  0.3202
    5R02      N   95   1.853   2.351   2.231 -0.7251  0.5429 -0.0315
    5R02     C1   96   1.817   2.412   2.101 -0.2457 -0.1187 -0.4197
    5R02     H1   97   1.819   2.522   2.112 -1.7981  0.1371 -2.1204
    5R02     C2   98   1.914   2.371   1.987 -0.7595  0.3959 -0.2535
    5R02     H2   99   2.014   2.364   2.032 -0.5925  2.6136 -0.1896
    5R02     H3  100   1.906   2.446   1.907 -0.1889  1.6692  0.8457
    5R02     H4  101   1.887   2.273   1.946 -2.7850  0.2347  1.3086
    5R02     C3  102   1.664   2.395   2.069 -0.8839 -0.1341  0.0188
    5R02     C4  103   1.599   2.450   1.954  0.4994  0.0796 -0.5320
    5R02     H5  104   1.647   2.510   1.878 -0.2568 -2.3176 -3.0925
    5R02     C5  105   1.462   2.440   1.937  0.0699 -0.3639  0.9414
    5R02     H6  106   1.409   2.485   1.853 -0.8468 -0.1441  1.6230
    5R02     C6  107   1.387   2.364   2.024 -0.2045 -0.2201 -0.1978
    5R02     H7  108   1.290   2.335   1.987  0.2044 -0.9196 -0.7509
    5R02     C7  109   1.447   2.304   2.134  0.4289  0.1205 -0.1377
    5R02     H8  110   1.393   2.229   2.190 -0.1016  0.6555  0.0727
    5R02     C8  111   1.581   2.318   2.151 -0.0782  0.0230 -0.9805
    5R02     H9  112   1.622   2.252   2.228  0.2832 -2.4549 -3.1539
    5R02     CA  113   1.909   2.208   2.232  0.0452 -0.0826 -0.2970
    5R02    H10  114   1.882   2.150   2.142  0.6036  0.2848 -0.7049
    5R02    H11  115   1.862   2.155   2.316  0.6884  2.6477  1.9358
    5R02      C  116   2.066   2.217   2.239 -0.0714  0.1319  0.0926
    5R02      O  117   2.121   2.323   2.252 -0.4343 -0.1250  0.6001
    6R02      N  118   2.142   2.096   2.240  0.4137  0.0666  0.0461
    6R02     C1  119   2.083   1.956   2.252 -0.2683 -0.0824  1.0277
    6R02     H1  120   1.974   1.953   2.252 -0.2401 -2.0362  1.2292
    6R02     C2  121   2.131   1.871   2.136 -0.6346  0.5036  0.3312
    6R02     H2  122   2.241   1.863   2.129 -0.6224 -1.5271  1.7879
    6R02     H3  123   2.076   1.895   2.045 -2.3189 -0.5658  1.0246
    6R02     H4  124   2.092   1.770   2.156 -2.2331  0.9832 -0.2089
    6R02     C3  125   2.115   1.906   2.396  0.0604  0.0617  0.1624
    6R02     C4  126   2.113   1.775   2.433 -0.1188  0.0648  0.0041
    6R02     H5  127   2.091   1.692   2.366 -0.0119 -0.4472  0.5970
    6R02     C5  128   2.147   1.730   2.561 -0.3646 -0.8384 -0.2481
    6R02     H6  129   2.149   1.622   2.575 -1.4251 -1.0270 -1.3149
    6R02     C6  130   2.162   1.815   2.666 -0.5078 -0.2836  0.3290
    6R02     H7  131   2.201   1.780   2.761  0.5502 -0.3816 -0.1264
    6R02     C7  132   2.158   1.951   2.638  0.0585  0.2926 -0.5660
    6R02     H8  133   2.164   2.017   2.724 -1.4253 -0.6730  0.3153
    6R02     C8  134   2.125   1.998   2.509 -0.3994  0.2958  0.0165
    6R02     H9  135   2.114   2.105   2.497 -2.7036  0.1437  0.1810
    6R02     CA  136   2.297   2.103   2.233 -0.0020  0.5669 -0.4289
    6R02    H10  137   2.331   2.001   2.257  1.6220  1.4241  1.1052
    6R02    H11  138   2.338   2.168   2.311  1.1881 -0.5168 -0.1152
    6R02      C  139   2.339   2.141   2.089 -0.2994  0.3593  0.6475
    6R02      O  140   2.253   2.173   2.010  0.1689 -0.3375  0.2755
    7R02      N  141   2.473   2.149   2.056  0.0580  0.0242 -0.8712
    7R02     C1  142   2.581   2.089   2.142  0.1940  0.7364 -0.1303
    7R02     H1  143   2.534   2.013   2.206  2.0120  1.2946  2.0060
    7R02     C2  144   2.686   2.018   2.061 -0.2998 -0.1245 -0.1650
    7R02     H2  145   2.750   2.086   2.003  0.1343 -0.0576  0.3864
    7R02     H3  146   2.636   1.943   1.998  0.6710  0.0385 -1.1743
    7R02     H4  147   2.751   1.961   2.127 -2.5458  2.5958  4.9357
    7R02     C3  148   2.648   2.179   2.248 -1.0095 -0.3287  0.2795
    7R02     C4  149   2.732   2.285   2.210 -0.6721 -0.6508 -0.8964
    7R02     H5  150   2.759   2.308   2.107 -1.3120 -0.7606 -1.0931
    7R02     C5  151   2.775   2.377   2.309 -0.4419  0.3086 -0.0214
    7R02     H6  152   2.821   2.470   2.281  0.5634  0.0609  0.7678
    7R02     C6  153   2.750   2.352   2.446  0.7192  0.1187 -0.4682
    7R02     H7  154   2.799   2.412   2.522 -0.9410 -2.2209  2.6703
    7R02     C7  155   2.670   2.240   2.487  0.4325 -0.2377 -0.0828
    7R02     H8  156   2.659   2.218   2.593  2.0106 -0.6306  0.0151
    7R02     C8  157   2.624   2.154   2.384  0.7250 -0.0864 -0.1810
    7R02     H9  158   2.566   2.067   2.413 -1.5855  0.5312 -2.4825
    7R02     CA  159   2.516   2.212   1.929  0.8280  0.0912  0.5808
    7R02    H10  160   2.624   2.231   1.930  1.0755 -0.9715 -1.2913
    7R02    H11  161   2.463   2.306   1.910 -2.8850 -1.3815  2.6097
    7R02      C  162   2.493   2.110   1.812  0.6032  0.2799  0.0891
    7R02      O  163   2.580   2.045   1.752  0.8008  0.3999  0.0388
    8NH2      N  164   2.363   2.090   1.775  0.5886 -0.3463 -0.0367
    8NH2     H1  165   2.289   2.142   1.823  0.0488  1.4618 -2.6351
    8NH2     H2  166   2.342   2.063   1.680 -0.0616  1.1062 -0.3375
    9CHL     CL  167   0.279   0.505   2.657 -0.3286 -0.3227 -0.0905
    9CHL      C  168   0.249   0.573   2.489 -0.6346  0.5862 -0.8363
    9CHL    CL1  169   0.334   0.729   2.465  0.0404  0.0260  0.4205
    9CHL    CL2  170   0.291   0.464   2.359 -0.1311  0.1393  0.6271
    9CHL      H  171   0.142   0.595   2.486 -0.3586  2.6726  1.5878
   10CHL     CL  172   1.260   0.910   2.455  0.6760 -0.2580  0.3550
   10CHL      C  173   1.123   1.008   2.514 -0.4363 -0.6088 -0.3251
   10CHL    CL1  174   1.193   1.167   2.549 -0.4957 -0.1499  0.2104
   10CHL    CL2  175   1.001   1.015   2.374 -0.0075 -0.2588  0.1208
   10CHL      H  176   1.082   0.960   2.603  1.4886  1.2512  1.7067
   11CHL     CL  177   2.401   2.282   0.943  0.2887  0.1944  0.5078
   11CHL      C  178   2.246   2.185   0.923 -0.8014 -0.4528  0.5036
   11CHL    CL1  179   2.212   2.085   1.073  0.3315 -0.0288  0.0878
   11CHL    CL2  180   2.104   2.295   0.893  0.3466  0.1635 -0.2572
   11CHL      H  181   2.257   2.118   0.837 -2.1933  0.3278 -0.3270
   12CHL     CL  182   2.831   3.420   1.515 -0.1155 -0.2439  0.1496
   12CHL      C  183   2.974   3.447   1.418 -0.6791  0.1954  0.4463
   12CHL    CL1  184   2.956   3.421   1.245  0.0283 -0.3918  0.0115
   12CHL    CL2  185   3.029   3.611   1.462 -0.2132 -0.0929  0.0470
   12CHL      H  186   3.049   3.372   1.445 -1.8894 -1.4640 -0.6246
   13CHL     CL  187   1.533   1.249   0.676  0.2574 -0.3166  0.1497
   13CHL      C  188   1.467   1.276   0.509 -0.2206 -0.5946 -0.7314
   13CHL    CL1  189   1.587   1.355   0.409 -0.3099  0.2350 -0.1546
   13CHL    CL2  190   1.428   1.112   0.427 -0.3716 -0.6168  0.2996
   13CHL      H  191   1.375   1.335   0.502 -1.5966 -2.6684 -1.2293
   14CHL     CL  192   2.073   2.776   1.468  0.1894 -0.2659  0.3360
   14CHL      C  193   2.138   2.918   1.558  0.8413  0.1506 -0.0028
   14CHL    CL1  194   2.110   3.068   1.456 -0.3448 -0.0895  0.0419
   14CHL    CL2  195   2.053   2.939   1.707 -0.2603  0.3284 -0.1333
   14CHL      H  196   2.244   2.901   1.579  1.0479  0.6067 -0.6248
   15CHL     CL  197   0.705   0.521   0.067  0.0742  0.2561  0.0779
   15CHL      C  198   0.665   0.584  -0.094  0.1828 -0.2539  0.0936
   15CHL    CL1  199   0.546   0.479  -0.176 -0.0572 -0.2801 -0.1314
   15CHL    CL2  200   0.614   0.756  -0.079  0.4025 -0.2396  0.2833
   15CHL      H  201   0.753   0.576  -0.159 -1.1482 -1.8085 -1.6089
   16CHL     CL  202   2.530   0.319   1.077 -0.2124 -0.0687 -0.1044
   16CHL      C  203   2.639   0.468   1.083  0.2021  0.2851 -0.4207
   16CHL    CL1  204   2.665   0.521   1.248  0.3564 -0.0293 -0.2745
   16CHL    CL2  205   2.788   0.433   1.005 -0.1504  0.0566 -0.3010
   16CHL      H  206   2.591   0.550   1.030 -1.4375 -0.7664 -0.6194
   17CHL     CL  207   3.156   0.752   2.883  0.1081  0.4522 -0.4696
   17CHL      C  208   3.260   0.854   2.988  0.6187 -0.0419 -0.5629
   17CHL    CL1  209   3.284   1.020   2.926  0.0473  0.4761  0.2503
   17CHL    CL2  210   3.188   0.843   3.143  0.2177 -0.5961 -0.1808
   17CHL      H  211   3.358   0.805   2.993 -0.4031 -2.1356  0.5144
   18CHL     CL  212   3.232   3.298   0.452 -0.1482 -0.2645 -0.0583
   18CHL      C  213   3.263   3.458   0.375 -0.3582 -0.6377 -0.3187
   18CHL    CL1  214   3.370   3.430   0.230 -0.3568  0.2013  0.5159
   18CHL    CL2  215   3.117   3.545   0.325 -0.5419 -0.0284 -0.2565
   18CHL      H  216   3.315   3.529   0.440  0.8654 -0.7383 -1.1497
   19CHL     CL  217   2.568   1.765   1.003  0.3181  0.3206 -0.5082
   19CHL      C  218   2.603   1.881   0.867  0.7626  0.4249 -0.0261
   19CHL    CL1  219   2.445   1.909   0.787  0.0918  0.6348  0.0026
   19CHL    CL2  220   2.674   2.040   0.935  0.2514 -0.3325 -0.0946
   19CHL      H  221   2.660   1.835   0.786 -1.1162 -2.5700  0.2220
   20CHL     CL  222   2.641   3.760   2.238  0.4170  0.1256  0.4797
   20CHL      C  223   2.541   3.786   2.381 -0.2975  0.0089  0.2878
   20CHL    CL1  224   2.367   3.797   2.336  0.1723  0.1619 -0.0679
   20CHL    CL2  225   2.559   3.641   2.495 -0.1715 -0.3797  0.6070
   20CHL      H  226   2.567   3.881   2.429 -2.4425  0.7946  0.0042
   21CHL     CL  227   2.070   1.852   3.200  0.0239 -0.4072  0.0290
   21CHL      C  228   2.196   1.888   3.312  0.0941  0.3168  0.1022
   21CHL    CL1  229   2.175   2.048   3.382  0.5629  0.5636 -0.1399
   21CHL    CL2  230   2.210   1.770   3.444 -0.0617  0.1593 -0.2747
   21CHL      H  231   2.285   1.888   3.249  0.7069  0.7998  0.9416
   22CHL     CL  232   2.660   0.459   0.456  0.7875  0.2539  0.1607
   22CHL      C  233   2.554   0.403   0.591 -0.2546  0.0522  0.0908
   22CHL    CL1  234   2.384   0.369   0.529 -0.2083 -0.2278  0.1459
   22CHL    CL2  235   2.626   0.261   0.670  0.5484  0.0337 -0.2653
   22CHL      H  236   2.552   0.490   0.657  0.4406  0.6335 -0.6244
   23CHL     CL  237   0.857   0.262   1.991  0.6132  0.0709  0.0870
   23CHL      C  238   0.979   0.237   1.870  0.5312  0.3168  0.4798
   23CHL    CL1  239   1.130   0.180   1.955  0.0684  0.3529  0.3159
   23CHL    CL2  240   0.910   0.116   1.750 -0.1999 -0.0789 -0.2211
   23CHL      H  241   0.999   0.333   1.821 -0.7609  0.4934  0.2715
   24CHL     CL  242   2.532   0.679   3.286  0.7014  0.3993  0.4023
   24CHL      C  243   2.439   0.837   3.305  0.4215 -0.1917  0.2139
   24CHL    CL1  244   2.529   0.966   3.218 -0.1413 -0.1672 -0.0605
   24CHL    CL2  245   2.281   0.812   3.228  0.4633  0.5457  0.0891
   24CHL      H  246   2.434   0.870   3.410  0.6125  0.3418  0.0578
   25CHL     CL  247   2.230   1.184   3.405  0.0397  0.1609 -0.2401
   25CHL      C  248   2.238   1.284   3.549 -0.4488 -0.3623 -0.6018
   25CHL    CL1  249   2.389   1.260   3.638  0.6702 -0.4537 -0.2884
   25CHL    CL2  250   2.253   1.452   3.496 -0.2941 -0.3051  0.0472
   25CHL      H  251   2.152   1.276   3.617  0.9252 -0.7967  1.1406
   26CHL     CL  252   2.666   1.040   2.097  0.1620 -0.3675 -0.0197
   26CHL      C  253   2.555   0.989   1.956 -0.4838 -0.3995 -0.4500
   26CHL    CL1  254   2.463   1.127   1.882  0.0736 -0.3483  0.3002
   26CHL    CL2  255   2.660   0.915   1.832 -0.0812  0.2735 -0.0769
   26CHL      H  256   2.478   0.919   1.990  1.9491 -2.3782  1.3621
   27CHL     CL  257   1.643   0.572   1.367  0.0036 -0.2823 -0.1841
   27CHL      C  258   1.595   0.573   1.194 -0.4432  0.0209  0.2065
   27CHL    CL1  259   1.735   0.637   1.101  0.2599  0.0513 -0.3530
   27CHL    CL2  260   1.555   0.400   1.143  0.0501  0.2921 -0.0761
   27CHL      H  261   1.510   0.641   1.192 -0.6753 -0.2797 -0.1674
   28CHL     CL  262   2.938   1.787   0.005 -0.1762 -0.0756  0.0087
   28CHL      C  263   3.119   1.797   0.005 -0.0513 -0.2565  0.3380
   28CHL    CL1  264   3.188   1.747   0.167  0.2478 -0.2069  0.0445
   28CHL    CL2  265   3.186   1.689  -0.119 -0.0687 -0.2271 -0.1194
   28CHL      H  266   3.147   1.902  -0.011  0.2584 -0.4501 -0.4153
   29CHL     CL  267   0.789   3.803   2.973  0.1790  0.4196  0.4481
   29CHL      C  268   0.951   3.723   3.012 -0.4489 -0.1012  0.5049
   29CHL    CL1  269   0.975   3.751   3.183  0.1553 -0.1819  0.1793
   29CHL    CL2  270   0.942   3.543   2.998 -0.1752 -0.4331 -0.1253
   29CHL      H  271   1.032   3.767   2.954 -0.5885  0.0726  0.4412
   30CHL     CL  272   0.494   0.410   3.222  0.1805 -0.0317  0.2897
   30CHL      C  273   0.578   0.262   3.168  0.5797  0.7381  0.0073
   30CHL    CL1  274   0.487   0.206   3.019  0.3426  0.1996  0.3271
   30CHL    CL2  275   0.756   0.304   3.124 -0.0937  0.2198  0.6367
   30CHL      H  276   0.575   0.182   3.243 -0.6846  0.9102  0.1672
   31CHL     CL  277   1.341   0.043   0.252  0.4477 -0.0252 -0.0665
   31CHL      C  278   1.492   0.068   0.351 -0.1059 -0.5065 -0.0220
   31CHL    CL1  279   1.460   0.172   0.506  0.2539 -0.0237  0.0346
   31CHL    CL2  280   1.567  -0.090   0.399 -0.0225  0.2564 -0.1664
   31CHL      H  281   1.560   0.123   0.286 -0.2077 -1.9315 -1.3864
   32CHL     CL  282   1.449   2.086   0.868 -0.0522 -0.1900 -0.1685
   32CHL      C  283   1.600   2.073   0.769  0.1718  0.0272  0.2623
   32CHL    CL1  284   1.583   2.176   0.613  0.0644 -0.1063  0.2830
   32CHL    CL2  285   1.732   2.148   0.867 -0.2236  0.4031 -0.2835
   32CHL      H  286   1.628   1.968   0.755  2.2826  0.5504  0.2489
   33CHL     CL  287   3.332   0.192   0.700  0.0074  0.1382  0.0227
   33CHL      C  288   3.246   0.277   0.835 -0.3334  0.1505  0.1836
   33CHL    CL1  289   3.341   0.275   0.987  0.5933 -0.1563  0.0509
   33CHL    CL2  290   3.208   0.458   0.789  0.1993  0.1844 -0.0983
   33CHL      H  291   3.152   0.224   0.854 -0.7357  1.0607  0.8173
   34CHL     CL  292   2.992   3.306   2.893  0.0006 -0.1632  0.0174
   34CHL      C  293   3.174   3.288   2.918 -0.5158 -0.4346 -0.0770
   34CHL    CL1  294   3.265   3.437   2.863  0.4177  0.0086 -0.0829
   34CHL    CL2  295   3.234   3.248   3.082 -0.2777 -0.0631 -0.2588
   34CHL      H  296   3.216   3.217   2.846  2.6359 -0.6279  1.7523
   35CHL     CL  297   0.752   2.672   3.816  0.3417 -0.0979  0.0294
   35CHL      C  298   0.860   2.807   3.837  0.1257 -0.0491  0.1927
   35CHL    CL1  299   1.010   2.768   3.923  0.1601 -0.6104 -0.2467
   35CHL    CL2  300   0.904   2.871   3.671  0.0648  0.1982 -0.4845
   35CHL      H  301   0.797   2.882   3.886 -1.4717 -1.3802  0.2580
   36CHL     CL  302   0.821   3.087   1.411 -0.3999  0.2670 -0.0046
   36CHL      C  303   0.850   2.963   1.540 -0.7387  0.1219 -0.3091
   36CHL    CL1  304   1.008   2.983   1.624  0.1014 -0.1334  0.0967
   36CHL    CL2  305   0.711   2.968   1.654 -0.0218 -0.2647 -0.1871
   36CHL      H  306   0.845   2.868   1.485 -0.4866  0.9248 -1.7748
   37CHL     CL  307   0.853   0.649   2.447  0.0289 -0.4460  0.1002
   37CHL      C  308   0.742   0.513   2.418 -0.3582 -0.8809  0.0179
   37CHL    CL1  309   0.629   0.549   2.288  0.4644 -0.0905 -0.0715
   37CHL    CL2  310   0.841   0.375   2.388 -0.8043  0.5489  0.1467
   37CHL      H  311   0.681   0.504   2.509 -1.8527 -0.1303 -0.8636
   38CHL     CL  312   2.589   3.449   0.519 -0.0517 -0.1226 -0.1930
   38CHL      C  313   2.505   3.615   0.499 -0.8948  0.3262 -0.0249
   38CHL    CL1  314   2.500   3.714   0.655  0.2446 -0.2954  0.0623
   38CHL    CL2  315   2.582   3.712   0.369 -0.1102  0.0676  0.1128
   38CHL      H  316   2.405   3.585   0.466 -0.7563 -0.0574 -0.1050
   39CHL     CL  317   2.898   0.806   0.028 -0.0363 -0.5847 -0.4674
   39CHL      C  318   2.718   0.766   0.025 -0.1961  0.7130  0.0414
   39CHL    CL1  319   2.628   0.825  -0.118 -0.3198  0.0203 -0.1474
   39CHL    CL2  320   2.699   0.578   0.019 -0.3976 -0.2790 -0.3930
   39CHL      H  321   2.678   0.807   0.118  0.3044 -0.1109  0.6354
   40CHL     CL  322   2.511   2.068   3.276  0.3035 -0.1742  0.1983
   40CHL      C  323   2.681   2.020   3.303 -0.0406 -0.0008  0.0584
   40CHL    CL1  324   2.769   2.143   3.402 -0.1318  0.2612 -0.0189
   40CHL    CL2  325   2.667   1.866   3.395 -0.0821  0.1452  0.2472
   40CHL      H  326   2.730   1.997   3.208 -1.5497 -0.7157 -0.5750
   41CHL     CL  327   2.150   2.254   0.222  0.1071 -0.1327  0.0504
   41CHL      C  328   2.010   2.356   0.166  0.1326 -0.2155 -0.0009
   41CHL    CL1  329   2.066   2.428   0.010  0.3477 -0.2634  0.2735
   41CHL    CL2  330   1.862   2.259   0.140  0.0407  0.0529 -0.3294
   41CHL      H  331   1.994   2.433   0.243  0.3409 -1.7257  1.6192
   42CHL     CL  332   2.713   2.985   3.727 -0.0944  0.0608  0.0509
   42CHL      C  333   2.545   2.933   3.690  0.5476 -0.1796 -0.6767
   42CHL    CL1  334   2.432   2.969   3.838  0.0703 -0.3184  0.1740
   42CHL    CL2  335   2.502   3.007   3.531  0.3231 -0.1821 -0.1110
   42CHL      H  336   2.533   2.824   3.690 -1.6420 -0.0341  1.4768
   43CHL     CL  337   3.349   2.928   0.222  0.1065  0.3427  0.3584
   43CHL      C  338   3.435   3.035   0.112 -0.1108 -0.0561  0.0187
   43CHL    CL1  339   3.555   3.135   0.203 -0.1049  0.2592  0.0305
   43CHL    CL2  340   3.505   2.947  -0.024 -0.5695  0.0553 -0.1111
   43CHL      H  341   3.365   3.112   0.077  0.3061  0.5579  0.5321
   44CHL     CL  342   3.768   1.452   3.412 -0.2542  0.2347  0.3427
   44CHL      C  343   3.738   1.376   3.566  0.0099  0.1087 -0.6337
   44CHL    CL1  344   3.849   1.237   3.595  0.4092  0.3036 -0.3873
   44CHL    CL2  345   3.755   1.503   3.691  0.1841  0.0225 -0.0834
   44CHL      H  346   3.638   1.334   3.564  0.9129 -2.3066  0.6893
   45CHL     CL  347   1.437   2.712   0.998  0.0021  0.3823  0.5967
   45CHL      C  348   1.592   2.649   1.018 -0.4479 -0.8137  0.2004
   45CHL    CL1  349   1.640   2.680   1.200 -0.4291 -0.5551  0.2847
   45CHL    CL2  350   1.591   2.469   0.990 -0.2984  0.5175 -0.0066
   45CHL      H  351   1.667   2.694   0.952 -0.7396 -0.5953  0.0152
   46CHL     CL  352   2.722   0.819   0.442 -0.2024  0.3336  0.0812
   46CHL      C  353   2.574   0.889   0.522 -0.6988 -0.0084  0.1761
   46CHL    CL1  354   2.554   1.061   0.456  0.0545 -0.4841 -0.4180
   46CHL    CL2  355   2.425   0.800   0.473  0.0802 -0.0759  0.3927
   46CHL      H  356   2.596   0.880   0.629  1.4585  1.8880 -0.0225
   47CHL     CL  357   1.862   0.080   0.153 -0.2357  0.0397 -0.1502
   47CHL      C  358   1.839   0.174  -0.001 -0.0573  0.4653 -0.0606
   47CHL    CL1  359   1.994   0.182  -0.092 -0.1811 -0.2395 -0.2717
   47CHL    CL2  360   1.698   0.098  -0.094 -0.2724  0.2905  0.5288
   47CHL      H  361   1.819   0.279   0.025  0.0398  1.2225 -2.7880
   48CHL     CL  362   3.464   0.708   0.838  0.2139  0.0133 -0.0144
   48CHL      C  363   3.333   0.835   0.866 -0.6959 -0.1223  0.6125
   48CHL    CL1  364   3.268   0.814   1.036 -0.3011  0.0317 -0.4106
   48CHL    CL2  365   3.395   0.996   0.849  0.1681 -0.1167 -0.1575
   48CHL      H  366   3.256   0.825   0.789  0.1230  0.9326 -0.3870
   49CHL     CL  367   1.910   2.944   0.528 -0.3393 -0.5842 -0.1977
   49CHL      C  368   1.805   3.073   0.589  0.6620  0.0033  0.6322
   49CHL    CL1  369   1.734   3.167   0.455  0.0196  0.1496 -0.3134
   49CHL    CL2  370   1.672   3.012   0.691 -0.0745  0.3333 -0.1645
   49CHL      H  371   1.863   3.143   0.650 -0.6375  0.2255  1.6430
   50CHL     CL  372   0.458   2.227   0.886  0.0916 -0.1182 -0.0168
   50CHL      C  373   0.306   2.321   0.868  1.0114 -0.2387  0.1937
   50CHL    CL1  374   0.273   2.361   0.691  0.3656 -0.0574 -0.0338
   50CHL    CL2  375   0.168   2.214   0.931 -0.0068 -0.0220  0.0770
   50CHL      H  376   0.307   2.411   0.929 -2.3400 -0.0117  0.1094
   51CHL     CL  377   2.300   2.444   2.565 -0.1842 -0.1609 -0.0362
   51CHL      C  378   2.365   2.529   2.423  0.2511  0.3010  0.3316
   51CHL    CL1  379   2.219   2.633   2.347  0.1851  0.2220  0.1056
   51CHL    CL2  380   2.506   2.634   2.475  0.1810  0.0126 -0.1946
   51CHL      H  381   2.393   2.454   2.348  0.3581  0.7249 -0.0567
   52CHL     CL  382   2.195   0.346   1.483 -0.0500  0.2614  0.1409
   52CHL      C  383   2.369   0.343   1.525 -0.4021  0.2631 -0.4817
   52CHL    CL1  384   2.391   0.508   1.602  0.1333  0.4111 -0.3326
   52CHL    CL2  385   2.411   0.219   1.648  0.0690  0.4277 -0.0572
   52CHL      H  386   2.426   0.351   1.432 -0.1879  0.6593 -0.3197
   53CHL     CL  387   1.739   1.079   3.436 -0.0957  0.1241 -0.2030
   53CHL      C  388   1.832   1.037   3.586 -0.1854 -0.1417 -0.3217
   53CHL    CL1  389   1.977   0.950   3.544 -0.2243  0.1487 -0.1509
   53CHL    CL2  390   1.858   1.189   3.678 -0.2881  0.0142 -0.0320
   53CHL      H  391   1.775   0.973   3.655  0.1677 -0.2573 -0.1329
   54CHL     CL  392   3.297   1.860   2.047  0.3685 -0.2167 -0.0269
   54CHL      C  393   3.476   1.868   2.053 -0.1090  0.6001  0.2067
   54CHL    CL1  394   3.551   1.702   2.037  0.3213  0.2089 -0.0627
   54CHL    CL2  395   3.537   1.965   1.915  0.4587  0.1879 -0.0439
   54CHL      H  396   3.505   1.919   2.145 -0.2067  1.0941 -0.0367
   55CHL     CL  397   2.885   0.172   2.422 -0.2342 -0.5165  0.1716
   55CHL      C  398   2.885   0.339   2.499 -0.0337 -0.0487 -0.1210
   55CHL    CL1  399   2.732   0.423   2.439 -0.1419  0.3295  0.0871
   55CHL    CL2  400   2.884   0.306   2.669  0.1198 -0.4853 -0.3668
   55CHL      H  401   2.980   0.387   2.474  0.5631 -0.4390  1.3143
   56CHL     CL  402   1.913   1.348   2.655 -0.1493 -0.3149  0.0329
   56CHL      C  403   1.926   1.311   2.482 -0.1285  0.7552 -0.3050
   56CHL    CL1  404   1.885   1.445   2.378 -0.1283  0.4082  0.0790
   56CHL    CL2  405   2.093   1.267   2.445 -0.2020  0.3099 -0.0792
   56CHL      H  406   1.868   1.219   2.471  0.5516 -0.1629  2.7751
   57CHL     CL  407   2.721   3.001   0.910 -0.3790 -0.4716 -0.2575
   57CHL      C  408   2.604   3.112   0.820 -0.2572  0.1275 -0.0733
   57CHL    CL1  409   2.444   3.030   0.796  0.0744 -0.3973  0.1814
   57CHL    CL2  410   2.580   3.258   0.914 -0.2039 -0.1391  0.2553
   57CHL      H  411   2.640   3.147   0.723 -0.6523  1.2048  0.1588
   58CHL     CL  412   1.884   0.553   1.763 -0.2011 -0.0145 -0.0118
   58CHL      C  413   1.716   0.522   1.821 -0.9576 -0.7874 -0.0437
   58CHL    CL1  414   1.622   0.676   1.835  0.2661  0.2370 -0.2131
   58CHL    CL2  415   1.626   0.427   1.699 -0.3925 -0.1560  0.2617
   58CHL      H  416   1.721   0.477   1.921 -3.6374  0.4464  0.7408
   59CHL     CL  417   1.760   1.587   1.796  0.4489 -0.1723  0.1876
   59CHL      C  418   1.745   1.539   1.632 -0.9347 -0.2735  0.2601
   59CHL    CL1  419   1.731   1.671   1.507  0.1235 -0.0050  0.0125
   59CHL    CL2  420   1.872   1.427   1.574 -0.2048  0.3299  0.0988
   59CHL      H  421   1.652   1.482   1.622 -0.2442 -1.8632  2.1879
   60CHL     CL  422   2.362   1.913   2.937  0.0031 -0.4753 -0.2687
   60CHL      C  423   2.482   1.836   2.838  0.1614 -0.5687  0.7264
   60CHL    CL1  424   2.525   1.949   2.709  0.2806  0.0435 -0.2218
   60CHL    CL2  425   2.626   1.797   2.930  0.0825  0.1715  0.8606
   60CHL      H  426   2.432   1.751   2.791  0.0111 -0.2881  0.3702
   61CHL     CL  427   2.960   0.061   0.784  0.1058  0.4213  0.3682
   61CHL      C  428   2.922   0.035   0.607 -0.3339 -0.2422  0.5053
   61CHL    CL1  429   3.065   0.037   0.491 -0.1251 -0.5001 -0.2326
   61CHL    CL2  430   2.854  -0.125   0.584  0.0177  0.1045  0.4127
   61CHL      H  431   2.843   0.103   0.573 -0.6857 -0.7697  0.2509
   62CHL     CL  432   3.630   1.754   1.540 -0.0859  0.0065 -0.0267
   62CHL      C  433   3.490   1.864   1.512 -0.0294  1.2862  0.5067
   62CHL    CL1  434   3.331   1.793   1.575 -0.4027  0.3573  0.2468
   62CHL    CL2  435   3.515   2.020   1.586  0.0524 -0.3159  0.3993
   62CHL      H  436   3.482   1.878   1.404 -0.5351 -0.0407  0.3612
   63CHL     CL  437   0.066   1.453   0.407 -0.2447  0.0019  0.0020
   63CHL      C  438   0.088   1.466   0.594  0.5938  0.1289  0.8717
   63CHL    CL1  439   0.261   1.515   0.612 -0.1635  0.0834 -0.2202
   63CHL    CL2  440  -0.027   1.580   0.671  0.2856  0.3639 -0.3018
   63CHL      H  441   0.078   1.367   0.638  2.2218 -0.1118  0.7881
   64CHL     CL  442   0.597   0.500   0.914 -0.0996  0.2089 -0.0857
   64CHL      C  443   0.636   0.375   1.043 -0.7671  0.2788  0.0822
   64CHL    CL1  444   0.556   0.224   1.022  0.4566 -0.1524 -0.2646
   64CHL    CL2  445   0.814   0.354   1.034 -0.0616  0.2318 -0.0985
   64CHL      H  446   0.606   0.413   1.141 -0.4276  0.9504 -0.0713
   65CHL     CL  447   0.766   3.168   2.590 -0.0793 -0.1463 -0.1582
   65CHL      C  448   0.861   3.307   2.517 -0.2790  1.3861 -0.0595
   65CHL    CL1  449   0.795   3.457   2.587 -0.0343 -0.0445 -0.0753
   65CHL    CL2  450   1.034   3.288   2.554 -0.2552 -0.1286 -0.0317
   65CHL      H  451   0.852   3.301   2.408 -0.3811  1.3452 -0.0486
   66CHL     CL  452   0.799   0.479   1.512  0.4410 -0.5797 -0.2159
   66CHL      C  453   0.652   0.515   1.594 -0.8624 -0.6114 -0.0797
   66CHL    CL1  454   0.512   0.517   1.484 -0.1383  0.0177 -0.1316
   66CHL    CL2  455   0.616   0.393   1.725 -0.0028 -0.2225  0.3092
   66CHL      H  456   0.666   0.611   1.645 -1.4832 -1.3000  1.4358
   67CHL     CL  457   0.033   1.039   0.228 -0.1319  0.0049  0.4757
   67CHL      C  458  -0.146   1.080   0.210 -0.3036 -0.0185  0.1270
   67CHL    CL1  459  -0.181   1.247   0.274 -0.0133  0.2224 -0.1270
   67CHL    CL2  460  -0.192   1.068   0.038 -0.3078 -0.5396 -0.1546
   67CHL      H  461  -0.200   1.006   0.271 -2.2747 -0.2422 -1.7783
   68CHL     CL  462   1.502   1.741   0.804  0.1723 -0.0736  0.0454
   68CHL      C  463   1.564   1.669   0.954  0.1719  0.2005 -0.4028
   68CHL    CL1  464   1.569   1.790   1.073 -0.1928  0.0643 -0.2155
   68CHL    CL2  465   1.453   1.532   1.003 -0.1575  0.1147  0.0683
   68CHL      H  466   1.662   1.625   0.933 -1.1555 -2.0018 -2.4121
   69CHL     CL  467   1.028   1.770   0.528  0.1743 -0.2320  0.2537
   69CHL      C  468   1.114   1.886   0.627  0.7842 -0.8386 -0.3508
   69CHL    CL1  469   1.117   1.831   0.802  0.3690 -0.2399  0.1010
   69CHL    CL2  470   1.279   1.892   0.564  0.4429 -0.1196 -0.1467
   69CHL      H  471   1.064   1.983   0.618 -1.0692 -1.8729 -1.7754
   70CHL     CL  472   3.060   1.755   3.421  0.1189  0.0559 -0.1603
   70CHL      C  473   3.058   1.641   3.279 -0.8980  0.0532  0.6539
   70CHL    CL1  474   3.093   1.473   3.333 -0.4485 -0.4956 -0.0634
   70CHL    CL2  475   2.902   1.636   3.184  0.4132 -0.4387 -0.4731
   70CHL      H  476   3.134   1.669   3.206 -1.0992  1.5022  0.9806
   71CHL     CL  477   2.140   0.965   0.954 -0.1783  0.4723 -0.4935
   71CHL      C  478   2.276   1.049   0.880  0.0663 -0.2765  0.7125
   71CHL    CL1  479   2.271   1.031   0.697 -0.0401 -0.2859  0.2065
   71CHL    CL2  480   2.279   1.227   0.902 -0.4552 -0.2135 -0.2079
   71CHL      H  481   2.376   1.014   0.908  0.5915 -0.1836 -0.9198
   72CHL     CL  482   2.016   3.445   0.602  0.5162 -0.2094  0.3528
   72CHL      C  483   2.157   3.496   0.698  0.5262  0.6064  0.6404
   72CHL    CL1  484   2.093   3.531   0.865 -0.1060 -0.0546  0.1669
   72CHL    CL2  485   2.275   3.365   0.702  0.0984 -0.1700 -0.0749
   72CHL      H  486   2.207   3.583   0.652 -0.1088  1.7516  2.0309
   73CHL     CL  487   2.229   2.691   0.920  0.1325 -0.5568  0.4917
   73CHL      C  488   2.085   2.637   1.004  0.4438  0.5750 -0.1212
   73CHL    CL1  489   2.080   2.680   1.172 -0.0224  0.2261  0.1083
   73CHL    CL2  490   1.941   2.715   0.923  0.2368 -0.0554  0.5552
   73CHL      H  491   2.082   2.528   0.996 -0.4807  0.3615  2.4434
   74CHL     CL  492   1.077   1.572   1.464  0.2615 -0.0910  0.2338
   74CHL      C  493   1.250   1.608   1.486 -0.1497 -0.1575  0.0433
   74CHL    CL1  494   1.333   1.495   1.585 -0.0671 -0.4378  0.0699
   74CHL    CL2  495   1.313   1.633   1.319 -0.1010 -0.3497 -0.0921
   74CHL      H  496   1.258   1.705   1.535 -1.3203 -0.0559  0.0468
   75CHL     CL  497   0.584   1.631   3.722 -0.0557 -0.1391 -0.5639
   75CHL      C  498   0.534   1.457   3.720 -0.2913  0.3346 -0.2439
   75CHL    CL1  499   0.394   1.440   3.608 -0.4327  0.3054 -0.0074
   75CHL    CL2  500   0.673   1.354   3.663  0.0646  0.4338  0.0684
   75CHL      H  501   0.500   1.427   3.820 -0.6050  1.0466 -0.1306
   76CHL     CL  502   3.453   2.399   1.937  0.1255  0.0819  0.3051
   76CHL      C  503   3.368   2.269   2.040 -0.1984 -0.6947  0.5631
   76CHL    CL1  504   3.475   2.217   2.174  0.5716 -0.4487  0.6935
   76CHL    CL2  505   3.213   2.317   2.094  0.0390  0.0065  0.1633
   76CHL      H  506   3.355   2.179   1.979 -2.1501  0.2881 -0.5304
   77CHL     CL  507   2.702   2.993   3.072  0.0651 -0.1722  0.4523
   77CHL      C  508   2.809   2.850   3.024  0.0984  0.1869  0.2736
   77CHL    CL1  509   2.741   2.760   2.886 -0.2839 -0.1502  0.0274
   77CHL    CL2  510   2.979   2.909   3.002  0.0738 -0.0127 -0.3315
   77CHL      H  511   2.812   2.771   3.100  0.5479 -0.6645 -0.6019
   78CHL     CL  512   3.323   0.302   1.422 -0.2360  0.4172  0.4834
   78CHL      C  513   3.415   0.443   1.464  0.0422  0.0258  0.3022
   78CHL    CL1  514   3.407   0.457   1.644  0.0044  0.0408  0.3252
   78CHL    CL2  515   3.592   0.411   1.433  0.1052  0.2463 -0.5837
   78CHL      H  516   3.377   0.522   1.399  1.8735 -0.3311 -1.2907
   79CHL     CL  517   1.040   2.617   1.203  0.4253  0.5174  0.3194
   79CHL      C  518   1.135   2.758   1.202  0.1380 -0.1433 -0.5639
   79CHL    CL1  519   1.049   2.888   1.092 -0.1917 -0.1315 -0.0778
   79CHL    CL2  520   1.140   2.821   1.365  0.3571 -0.1621  0.2473
   79CHL      H  521   1.238   2.736   1.173  0.0273 -0.0565 -1.0439
   80CHL     CL  522   2.058   0.391   2.369 -0.0456  0.2986  0.1196
   80CHL      C  523   1.972   0.497   2.243 -0.2395 -0.5085  0.2779
   80CHL    CL1  524   2.033   0.451   2.082  0.2995 -0.0650  0.0980
   80CHL    CL2  525   1.792   0.485   2.248 -0.1724  0.5536  0.1119
   80CHL      H  526   2.005   0.598   2.270  1.1463 -1.1480  1.0599
   81CHL     CL  527   0.427   1.665   1.476 -0.1891 -0.2436  0.3401
   81CHL      C  528   0.585   1.742   1.450  0.0519  0.9076 -0.7510
   81CHL    CL1  529   0.577   1.917   1.475  0.2562  0.6614  0.3514
   81CHL    CL2  530   0.692   1.669   1.577 -0.0434 -0.0274 -0.1822
   81CHL      H  531   0.628   1.710   1.354  0.0118  1.4365 -0.9446
   82CHL     CL  532   1.426   0.726   0.901 -0.1581 -0.3186  0.0707
   82CHL      C  533   1.496   0.639   0.758  0.6569 -0.1673 -0.1113
   82CHL    CL1  534   1.641   0.538   0.793 -0.3602  0.0281  0.4797
   82CHL    CL2  535   1.369   0.530   0.692 -0.1415  0.1311  0.1663
   82CHL      H  536   1.533   0.709   0.683  0.8083 -1.4179 -1.2460
   83CHL     CL  537   3.529   2.943   0.897 -0.1573 -0.3083 -0.2367
   83CHL      C  538   3.427   2.902   0.763  0.4264 -0.1223 -0.3571
   83CHL    CL1  539   3.355   2.739   0.800  0.2119  0.0118  0.2960
   83CHL    CL2  540   3.294   3.031   0.753  0.0171  0.0320  0.3160
   83CHL      H  541   3.487   2.902   0.672  0.4328  3.6823 -0.5363
   84CHL     CL  542   2.522   3.768   1.289  0.0905 -0.1314 -0.1821
   84CHL      C  543   2.560   3.678   1.129  0.5124 -0.1108  0.1362
   84CHL    CL1  544   2.638   3.522   1.154  0.3114  0.0889  0.0689
   84CHL    CL2  545   2.411   3.664   1.024 -0.3384 -0.2101 -0.2644
   84CHL      H  546   2.624   3.743   1.068 -0.1540  0.9215  0.5195
   85CHL     CL  547   0.028   1.177   1.853 -0.3536 -0.0555  0.1679
   85CHL      C  548  -0.077   1.304   1.917  0.5792  0.0025  0.4585
   85CHL    CL1  549  -0.210   1.226   2.018  0.2443  0.0948 -0.0412
   85CHL    CL2  550   0.023   1.432   1.996  0.4350  0.5936  0.0422
   85CHL      H  551  -0.127   1.350   1.831  0.2623  1.3907  1.3577
   86CHL     CL  552   0.223   2.348   2.292 -0.1301  0.0791  0.2189
   86CHL      C  553   0.291   2.434   2.144 -0.1029 -0.3540 -0.4774
   86CHL    CL1  554   0.423   2.548   2.195 -0.3431 -0.2343 -0.1227
   86CHL    CL2  555   0.351   2.315   2.026  0.0978  0.0429  0.2686
   86CHL      H  556   0.205   2.491   2.106 -0.4362  0.7637  1.8233
   87CHL     CL  557   0.821   1.092   1.171 -0.3577 -0.2369 -0.2993
   87CHL      C  558   0.939   1.107   1.301  0.7110  0.8216 -0.4755
   87CHL    CL1  559   1.066   0.982   1.285 -0.1367 -0.0738  0.0765
   87CHL    CL2  560   0.996   1.278   1.306 -0.5828 -0.3504 -0.2577
   87CHL      H  561   0.886   1.080   1.393 -0.7338  1.5263 -1.0656
   88CHL     CL  562   1.384   3.191   1.096 -0.5976  0.5900 -0.1556
   88CHL      C  563   1.259   3.299   1.174  0.3026  0.3904  0.2137
   88CHL    CL1  564   1.297   3.473   1.146  0.2899  0.0190  0.2048
   88CHL    CL2  565   1.096   3.275   1.102  0.5121  0.2359  0.3185
   88CHL      H  566   1.246   3.271   1.279 -0.8431 -1.7630 -0.4291
   89CHL     CL  567   0.655   2.521   1.079 -0.0722 -0.0345  0.2650
   89CHL      C  568   0.703   2.591   0.923  0.3770  0.1758 -0.2659
   89CHL    CL1  569   0.610   2.513   0.783  0.2516  0.2149 -0.2015
   89CHL    CL2  570   0.666   2.771   0.923  0.3323 -0.2711 -0.3299
   89CHL      H  571   0.811   2.575   0.919  0.0949 -2.3924  0.7681
   90CHL     CL  572   1.971   1.188   1.289 -0.0030  0.2224  0.1269
   90CHL      C  573   2.132   1.126   1.326  0.2285  0.8743 -0.0414
   90CHL    CL1  574   2.213   1.246   1.432 -0.0254 -0.1251  0.2841
   90CHL    CL2  575   2.126   0.961   1.407 -0.1625  0.3149 -0.3360
   90CHL      H  576   2.190   1.122   1.233 -0.8589  1.0329 -0.7410
   91CHL     CL  577   1.309   2.526   3.040 -0.1016  0.1033 -0.2177
   91CHL      C  578   1.424   2.640   3.007  0.1707 -0.6721 -0.0347
   91CHL    CL1  579   1.588   2.577   3.033  0.2271 -0.0944  0.0771
   91CHL    CL2  580   1.413   2.702   2.836  0.1352 -0.1544 -0.1741
   91CHL      H  581   1.402   2.721   3.078  0.8516 -0.1599 -0.3917
   92CHL     CL  582   1.615   2.649   3.372 -0.0572 -0.0369  0.4296
   92CHL      C  583   1.792   2.597   3.374  0.4496  0.3125 -0.4147
   92CHL    CL1  584   1.812   2.422   3.333  0.2579  0.3100 -0.1965
   92CHL    CL2  585   1.874   2.710   3.259  0.2587  0.0354 -0.6697
   92CHL      H  586   1.826   2.597   3.479 -0.2700 -1.1481 -0.1566
   93CHL     CL  587   2.256   0.355   0.825 -0.4844 -0.1298  0.4737
   93CHL      C  588   2.213   0.518   0.890 -0.2631 -0.4287 -0.6918
   93CHL    CL1  589   2.039   0.563   0.860 -0.2347  0.4860 -0.6905
   93CHL    CL2  590   2.247   0.522   1.070  0.0990  0.0894 -0.0653
   93CHL      H  591   2.279   0.590   0.842 -0.4392 -0.6023 -1.2037
   94CHL     CL  592   1.976   2.242   0.531 -0.3523  0.2991 -0.1184
   94CHL      C  593   2.019   2.079   0.482 -0.0789  0.2193 -0.5424
   94CHL    CL1  594   2.099   2.008   0.631  0.2981  0.2679 -0.2393
   94CHL    CL2  595   1.868   1.987   0.439 -0.3843  0.0912  0.0967
   94CHL      H  596   2.080   2.098   0.393 -2.6097  2.4873 -1.9183
   95CHL     CL  597   2.911   0.108   2.946  0.2997 -0.3934  0.0555
   95CHL      C  598   2.951  -0.052   2.992  0.1779 -0.0529 -0.1894
   95CHL    CL1  599   3.128  -0.087   3.004 -0.2964  0.2085  0.2477
   95CHL    CL2  600   2.850  -0.106   3.136 -0.0502  0.0581  0.3597
   95CHL      H  601   2.913  -0.113   2.909 -0.6706  0.5830 -0.2862
   96CHL     CL  602   3.479   2.489   0.637  0.4439  0.4209 -0.1009
   96CHL      C  603   3.536   2.408   0.785  0.4378 -0.2409  0.1256
   96CHL    CL1  604   3.628   2.262   0.738 -0.2318 -0.3643 -0.1575
   96CHL    CL2  605   3.649   2.501   0.880  0.0065  0.0642  0.1432
   96CHL      H  606   3.451   2.380   0.847  0.0762 -0.8734 -0.6376
   97CHL     CL  607   0.679   2.794   3.023  0.2609  0.3633  0.3755
   97CHL      C  608   0.790   2.930   3.033 -0.1213  0.3708  0.2477
   97CHL    CL1  609   0.710   3.070   2.962  0.1324  0.0530 -0.1800
   97CHL    CL2  610   0.827   2.958   3.204 -0.1577  0.1428  0.3166
   97CHL      H  611   0.876   2.910   2.968  0.5582  0.8274  0.9755
   98CHL     CL  612   3.256   2.007   2.342  0.0844  0.2470 -0.2434
   98CHL      C  613   3.085   2.038   2.300  0.2044 -0.2200 -0.2548
   98CHL    CL1  614   3.000   1.908   2.220 -0.0717  0.5426  0.2782
   98CHL    CL2  615   2.995   2.115   2.435  0.0639 -0.1785  0.2865
   98CHL      H  616   3.085   2.114   2.222 -0.8051 -0.0191 -0.0761
   99CHL     CL  617   3.738   3.453   3.067  0.2364  0.4228  0.0015
   99CHL      C  618   3.780   3.286   3.011 -0.0101  0.1016 -0.0358
   99CHL    CL1  619   3.712   3.257   2.844 -0.2465  0.3626  0.2450
   99CHL    CL2  620   3.961   3.253   3.012 -0.0336  0.3539  0.1078
   99CHL      H  621   3.728   3.209   3.068 -2.1410  0.6366 -1.1330
  100CHL     CL  622   2.833   2.737   2.512  0.1128 -0.0105  0.3277
  100CHL      C  623   2.942   2.885   2.542 -0.0305 -0.9153 -0.3523
  100CHL    CL1  624   2.851   3.001   2.649 -0.1074  0.1959 -0.2048
  100CHL    CL2  625   3.091   2.819   2.628  0.2810  0.0371  0.0628
  100CHL      H  626   2.974   2.934   2.450 -1.9192  0.6019 -0.2735
  101CHL     CL  627   0.005   0.874   3.539  0.2724 -0.1486 -0.0967
  101CHL      C  628  -0.114   0.743   3.592  0.1158 -0.5116  0.5184
  101CHL    CL1  629  -0.206   0.677   3.452 -0.1551 -0.0293  0.1658
  101CHL    CL2  630  -0.030   0.605   3.669 -0.1045 -0.1162  0.0193
  101CHL      H  631  -0.189   0.796   3.652  0.5965  2.2241 -1.1251
  102CHL     CL  632   2.236   2.604   1.818  0.1611 -0.0040 -0.8301
  102CHL      C  633   2.331   2.648   1.977 -0.6711  0.2750  0.4191
  102CHL    CL1  634   2.474   2.536   2.038  0.0774 -0.2884  0.4715
  102CHL    CL2  635   2.396   2.814   1.952 -0.1281  0.6342 -0.2107
  102CHL      H  636   2.246   2.650   2.046 -2.8746 -0.2551 -2.1133
  103CHL     CL  637   0.690   0.875   1.437  0.2370  0.4421 -0.2403
  103CHL      C  638   0.521   0.909   1.377  0.7499  0.6002  0.3164
  103CHL    CL1  639   0.501   0.798   1.237 -0.5162 -0.4808 -0.4253
  103CHL    CL2  640   0.394   0.882   1.496 -0.1450 -0.3165 -0.0890
  103CHL      H  641   0.514   1.013   1.346 -0.9015  0.1268 -1.0552
  104CHL     CL  642   1.375   2.475   1.272 -0.1140  0.0456  0.2230
  104CHL      C  643   1.346   2.452   1.454 -0.4410 -0.0347 -0.1379
  104CHL    CL1  644   1.208   2.340   1.490 -0.2041 -0.3525 -0.1995
  104CHL    CL2  645   1.487   2.367   1.540 -0.4853 -0.0312 -0.2431
  104CHL      H  646   1.326   2.543   1.512 -2.1195 -0.1996 -0.4139
  105CHL     CL  647   0.524   3.502   1.635  0.0907  0.0696  0.0761
  105CHL      C  648   0.420   3.402   1.745 -0.8926 -0.0738  0.0184
  105CHL    CL1  649   0.282   3.485   1.811 -0.0590 -0.1335  0.3723
  105CHL    CL2  650   0.359   3.255   1.657 -0.3464 -0.3722 -0.0623
  105CHL      H  651   0.490   3.380   1.827  1.9669  1.1542 -1.9116
  106CHL     CL  652   1.506   1.352   2.205  0.1225 -0.1135 -0.1024
  106CHL      C  653   1.349   1.264   2.216  0.8264  0.8858  0.9309
  106CHL    CL1  654   1.225   1.383   2.269 -0.4673 -0.2664  0.1541
  106CHL    CL2  655   1.305   1.208   2.039 -0.2015  0.2503  0.3390
  106CHL      H  656   1.364   1.189   2.294  1.5607  1.2929  1.1961
  107CHL     CL  657   0.451   1.400   2.808  0.0311 -0.0675 -0.6097
  107CHL      C  658   0.584   1.461   2.913 -0.1513 -0.1268 -0.0455
  107CHL    CL1  659   0.510   1.517   3.070 -0.3786  0.2500 -0.2490
  107CHL    CL2  660   0.694   1.325   2.948 -0.1814 -0.0040  0.2121
  107CHL      H  661   0.638   1.531   2.849  1.0178 -2.1962 -1.4030
  108CHL     CL  662   1.856   1.877   2.820 -0.0023  0.0181 -0.0486
  108CHL      C  663   1.732   1.758   2.743  0.6444  0.0269  0.1143
  108CHL    CL1  664   1.567   1.830   2.734 -0.0943 -0.3801  0.1158
  108CHL    CL2  665   1.788   1.706   2.574  0.1303 -0.1966  0.3556
  108CHL      H  666   1.729   1.671   2.810 -2.0421 -0.6284 -0.7582
  109CHL     CL  667   2.754   1.468   1.313  0.3356 -0.0980 -0.2820
  109CHL      C  668   2.813   1.611   1.407  0.2721 -0.1062 -0.8049
  109CHL    CL1  669   2.747   1.616   1.578 -0.2954  0.4652 -0.1071
  109CHL    CL2  670   2.992   1.606   1.414  0.2094 -0.1286 -0.1228
  109CHL      H  671   2.793   1.700   1.347  2.9634  1.4397  0.3801
  110CHL     CL  672   0.817   1.782   3.403  0.1820 -0.0767 -0.0533
  110CHL      C  673   0.665   1.719   3.330  0.3350 -0.4872  0.0513
  110CHL    CL1  674   0.629   1.554   3.397  0.3888 -0.1199  0.7296
  110CHL    CL2  675   0.538   1.841   3.388 -0.2101  0.0654 -0.2956
  110CHL      H  676   0.666   1.705   3.221  0.4232 -0.3483  0.0351
  111CHL     CL  677   1.557   1.475   2.633  0.0652 -0.3623  0.1285
  111CHL      C  678   1.437   1.406   2.747  0.1305  0.4190 -0.0324
  111CHL    CL1  679   1.473   1.240   2.785 -0.0437 -0.0913  0.1121
  111CHL    CL2  680   1.451   1.498   2.895  0.3064 -0.3293  0.0173
  111CHL      H  681   1.338   1.427   2.704 -0.4524  0.3150  1.2277
  112CHL     CL  682   3.620   1.069   3.357 -0.0315  0.5947 -0.0823
  112CHL      C  683   3.646   1.089   3.176  0.4300 -0.5648  0.2080
  112CHL    CL1  684   3.790   1.188   3.145 -0.5034 -0.2552 -0.4305
  112CHL    CL2  685   3.675   0.929   3.100  0.1446 -0.1450  0.2304
  112CHL      H  686   3.560   1.136   3.127  1.3706 -0.2380 -1.1769
  113CHL     CL  687   1.046   3.376   1.468  0.3903  0.3624 -0.0734
  113CHL      C  688   0.925   3.438   1.589  0.0427  0.4698  0.2786
  113CHL    CL1  689   0.932   3.326   1.728  0.1586 -0.0382  0.0351
  113CHL    CL2  690   0.969   3.601   1.641 -0.1746  0.4890  0.0255
  113CHL      H  691   0.820   3.444   1.559  0.1510  0.6821 -0.0605
  114CHL     CL  692   3.039   3.297   0.931 -0.6608 -0.3640 -0.0498
  114CHL      C  693   2.986   3.438   0.840  0.0402 -0.0755 -0.2428
  114CHL    CL1  694   3.098   3.490   0.708  0.3886 -0.1782  0.0149
  114CHL    CL2  695   2.837   3.381   0.760  0.2173  0.0142 -0.2408
  114CHL      H  696   2.953   3.521   0.903 -1.0207 -1.4545  1.1062
  115CHL     CL  697   0.470   0.930   2.950 -0.0621 -0.1057 -0.1258
  115CHL      C  698   0.606   0.841   2.884  0.1542 -0.7053  0.0282
  115CHL    CL1  699   0.637   0.687   2.993 -0.1088 -0.1967  0.0260
  115CHL    CL2  700   0.573   0.773   2.719 -0.1009 -0.4577  0.2238
  115CHL      H  701   0.691   0.910   2.879  1.1516 -1.9701 -1.6098
  116CHL     CL  702   2.244   1.713   0.537  0.2411 -0.6137  0.5769
  116CHL      C  703   2.211   1.607   0.683  0.0837 -0.2926  0.1474
  116CHL    CL1  704   2.351   1.502   0.714 -0.1295 -0.2010 -0.0682
  116CHL    CL2  705   2.181   1.706   0.828  0.1817 -0.1669  0.3223
  116CHL      H  706   2.125   1.543   0.661 -0.3994  0.3089  0.2556
  117CHL     CL  707   3.614   0.993   2.547 -0.1742  0.4480  0.4191
  117CHL      C  708   3.596   1.064   2.390  0.1712  0.2341  0.0477
  117CHL    CL1  709   3.745   1.059   2.295  0.0419 -0.2650 -0.2011
  117CHL    CL2  710   3.467   0.967   2.305 -0.3705 -0.0646 -0.2192
  117CHL      H  711   3.561   1.168   2.403  3.6792  1.4295  0.9898
  118CHL     CL  712   1.349   2.161   0.092  0.0598 -0.1907 -0.0392
  118CHL      C  713   1.396   2.110   0.261  0.5905  0.0686  0.1507
  118CHL    CL1  714   1.576   2.122   0.274  0.3172 -0.0713 -0.1294
  118CHL    CL2  715   1.318   2.209   0.396  0.3168  0.0741 -0.0489
  118CHL      H  716   1.370   2.005   0.279  0.6933 -0.0699 -0.4666
  119CHL     CL  717   0.266   1.865   2.869 -0.3357  0.3801 -0.3000
  119CHL      C  718   0.099   1.827   2.906  0.3620 -0.3223  0.7435
  119CHL    CL1  719  -0.009   1.971   2.922 -0.2503  0.1106  0.1244
  119CHL    CL2  720   0.040   1.732   2.767 -0.3814 -0.0939  0.3143
  119CHL      H  721   0.106   1.765   2.997  0.3462  0.3273  1.1959
  120CHL     CL  722   2.939   0.566   3.071  0.2991 -0.1893  0.3083
  120CHL      C  723   2.832   0.459   3.165 -0.2359  0.2707  0.1981
  120CHL    CL1  724   2.713   0.372   3.054 -0.1746 -0.2126 -0.0782
  120CHL    CL2  725   2.938   0.337   3.248  0.3062  0.2833 -0.1807
  120CHL      H  726   2.783   0.516   3.245 -0.9182  0.0543 -0.0564
  121CHL     CL  727   3.502   0.659   0.176 -0.2337 -0.3281 -0.5038
  121CHL      C  728   3.324   0.659   0.186  0.3188 -0.5903  0.3536
  121CHL    CL1  729   3.271   0.811   0.102  0.2241 -0.3569  0.1798
  121CHL    CL2  730   3.261   0.521   0.094 -0.0798  0.5654  0.0285
  121CHL      H  731   3.283   0.653   0.287  1.3828  1.7463  0.9797
  122CHL     CL  732   2.016   0.642   3.353 -0.5207  0.4168 -0.0549
  122CHL      C  733   1.994   0.519   3.496 -0.4943 -0.1816  0.8249
  122CHL    CL1  734   1.930   0.620   3.633  0.0765 -0.1067  0.2128
  122CHL    CL2  735   1.891   0.383   3.443  0.5779  0.2483 -0.0498
  122CHL      H  736   2.095   0.482   3.516  1.7658  3.1425 -2.9113
  123CHL     CL  737   0.781   1.067   1.783  0.0793 -0.0078  0.1308
  123CHL      C  738   0.834   1.073   1.958  0.2803 -0.0797 -0.2864
  123CHL    CL1  739   0.952   0.937   1.993  0.4137  0.0056  0.1004
  123CHL    CL2  740   0.885   1.237   2.008 -0.1240  0.2412  0.5079
  123CHL      H  741   0.742   1.044   2.010 -0.3537  0.3689 -1.1259
  124CHL     CL  742   3.597   3.088   2.398  0.1611  0.5017 -0.3477
  124CHL      C  743   3.468   3.195   2.466 -0.1895  0.1692 -0.0432
  124CHL    CL1  744   3.464   3.170   2.646 -0.2099 -0.1181  0.2179
  124CHL    CL2  745   3.488   3.365   2.403  0.4675 -0.1940 -0.0554
  124CHL      H  746   3.373   3.159   2.426  0.0643 -0.2645 -0.2628
  125CHL     CL  747   1.418   3.249   0.180 -0.0373 -0.5175  0.2429
  125CHL      C  748   1.264   3.161   0.227 -0.4833  0.5450 -0.2000
  125CHL    CL1  749   1.117   3.254   0.231  0.1980  0.2161  0.0359
  125CHL    CL2  750   1.242   3.016   0.138  0.1253  0.5332 -0.3723
  125CHL      H  751   1.292   3.130   0.328  1.5881 -0.1179 -0.9234
  126CHL     CL  752   3.635   2.751   1.230 -0.1165 -0.0620  0.0084
  126CHL      C  753   3.492   2.872   1.228 -0.7098  0.0312  0.0090
  126CHL    CL1  754   3.372   2.800   1.325 -0.1934  0.4159 -0.2967
  126CHL    CL2  755   3.535   3.029   1.304 -0.2335  0.1112  0.4368
  126CHL      H  756   3.448   2.885   1.129 -1.1993  1.1743  0.3597
  127CHL     CL  757   0.095   1.936   0.699 -0.0674  0.5206 -0.2188
  127CHL      C  758   0.257   1.999   0.678 -0.3364 -0.1339  0.4058
  127CHL    CL1  759   0.386   1.878   0.742  0.5025  0.1097  0.0357
  127CHL    CL2  760   0.288   2.014   0.506  0.3991 -0.1408 -0.2581
  127CHL      H  761   0.261   2.099   0.723 -2.5876  0.5045 -0.6434
  128CHL     CL  762   1.780   2.241   1.654  0.0739 -0.0427 -0.0632
  128CHL      C  763   1.878   2.091   1.699  0.1894  0.4445 -0.2090
  128CHL    CL1  764   2.057   2.132   1.710  0.0879 -0.1719  0.3927
  128CHL    CL2  765   1.814   2.027   1.860 -0.1216 -0.1689 -0.6877
  128CHL      H  766   1.871   2.022   1.614  2.9519  0.4970 -0.5708
  129CHL     CL  767   1.498   2.740   1.531 -0.1097 -0.0961  0.0642
  129CHL      C  768   1.677   2.772   1.522  0.3212 -0.1318  0.4611
  129CHL    CL1  769   1.718   2.919   1.420  0.3600 -0.3648  0.2396
  129CHL    CL2  770   1.746   2.785   1.690  0.1201  0.0152 -0.1599
  129CHL      H  771   1.723   2.681   1.482 -1.3563 -0.9987  0.4317
  130CHL     CL  772   2.105   0.342   3.005  0.2028 -0.3513  0.1602
  130CHL      C  773   2.131   0.337   3.185  0.6512  0.4486  0.5844
  130CHL    CL1  774   2.149   0.164   3.238 -0.0957 -0.0744 -0.2505
  130CHL    CL2  775   2.274   0.416   3.238 -0.3765 -0.4576  0.5461
  130CHL      H  776   2.041   0.380   3.229  0.1737  0.3582 -0.2746
  131CHL     CL  777   3.195   2.085   1.674  0.0666 -0.0074  0.1022
  131CHL      C  778   3.099   1.959   1.759  0.1745  0.9089  0.0067
  131CHL    CL1  779   2.995   2.033   1.890 -0.0783  0.0433 -0.0634
  131CHL    CL2  780   2.995   1.886   1.638  0.2571 -0.4026 -0.3248
  131CHL      H  781   3.165   1.885   1.805 -0.0720 -0.5491 -1.8419
  132CHL     CL  782   1.315   0.183   0.866  0.3772  0.0406 -0.4157
  132CHL      C  783   1.432   0.068   0.941 -0.0177 -0.6409  0.3886
  132CHL    CL1  784   1.599   0.117   0.914 -0.0576 -0.3642 -0.8067
  132CHL    CL2  785   1.386   0.083   1.119  0.1667 -0.4382 -0.1238
  132CHL      H  786   1.433  -0.037   0.910 -0.1540  0.0653 -2.2350
  133CHL     CL  787   1.023   1.897   2.045 -0.1463  0.1737 -0.0114
  133CHL      C  788   1.034   1.727   1.980  1.0033 -0.4276  0.6845
  133CHL    CL1  789   0.930   1.711   1.844  0.0048 -0.0955  0.5972
  133CHL    CL2  790   1.215   1.695   1.947  0.1681 -0.0048  0.2985
  133CHL      H  791   0.995   1.651   2.048  0.5042 -0.5744  0.2411
  134CHL     CL  792   0.966   1.641   2.597 -0.0586 -0.0218  0.0611
  134CHL      C  793   1.080   1.730   2.491 -0.0976 -0.4640 -0.6751
  134CHL    CL1  794   1.243   1.676   2.547 -0.2305  0.0480  0.1372
  134CHL    CL2  795   1.049   1.708   2.320 -0.1611  0.2363 -0.7210
  134CHL      H  796   1.063   1.835   2.516  1.4407 -0.7140  1.6454
  135CHL     CL  797   1.167   1.213   0.801  0.0459  0.3083 -0.0036
  135CHL      C  798   1.067   1.357   0.825  0.1816 -0.1303 -0.3706
  135CHL    CL1  799   1.028   1.419   0.659  0.2558  0.0858 -0.3022
  135CHL    CL2  800   0.922   1.315   0.928 -0.3627 -0.1758  0.0209
  135CHL      H  801   1.112   1.440   0.880 -1.2990  1.3703 -1.3544
  136CHL     CL  802   1.793   0.289   0.657 -0.2812  0.0290 -0.1233
  136CHL      C  803   1.961   0.308   0.596 -0.1295 -0.8141 -0.4884
  136CHL    CL1  804   2.039   0.153   0.610  0.1440  0.2207 -0.2773
  136CHL    CL2  805   1.961   0.365   0.425 -0.1534 -0.0130  0.1521
  136CHL      H  806   2.012   0.383   0.657 -0.5131  0.1130 -1.2818
  137CHL     CL  807   2.957   1.295   0.375  0.6078 -0.1160 -0.1219
  137CHL      C  808   2.881   1.144   0.315  0.1949  0.0028  0.1083
  137CHL    CL1  809   2.769   1.194   0.188  0.0624 -0.0478  0.1874
  137CHL    CL2  810   3.002   1.036   0.249 -0.4517  0.2410 -0.0218
  137CHL      H  811   2.820   1.087   0.386 -0.8815 -0.3751 -1.0824
  138CHL     CL  812   0.516   3.610   2.898 -0.7027 -0.0971  0.1149
  138CHL      C  813   0.523   3.438   2.964 -0.2244 -0.4023 -0.6632
  138CHL    CL1  814   0.407   3.407   3.099  0.4712  0.0979  0.3923
  138CHL    CL2  815   0.491   3.320   2.837  0.2283 -0.6154 -0.0703
  138CHL      H  816   0.621   3.420   3.009  0.1653  1.9684 -0.4375
  139CHL     CL  817   1.580   0.888   3.808  0.1944 -0.1178  0.3644
  139CHL      C  818   1.506   1.042   3.827 -0.2030  0.7727 -0.3374
  139CHL    CL1  819   1.515   1.127   3.676 -0.2014 -0.4939  0.0956
  139CHL    CL2  820   1.331   1.029   3.876  0.3009 -0.0275  0.4501
  139CHL      H  821   1.562   1.093   3.907  1.2760  0.4536 -1.1302
  140CHL     CL  822   1.517   3.630   3.570  0.3819 -0.1489  0.1557
  140CHL      C  823   1.396   3.673   3.700 -0.1508 -0.1967 -0.3911
  140CHL    CL1  824   1.444   3.608   3.856 -0.3377  0.0167 -0.7767
  140CHL    CL2  825   1.363   3.854   3.729 -0.4999  0.2355 -0.1160
  140CHL      H  826   1.302   3.623   3.673 -1.2196 -0.7377  3.6621
  141CHL     CL  827   0.091   0.974   0.798 -0.2340  0.0898 -0.1977
  141CHL      C  828   0.082   0.991   0.615  1.0174  0.0168 -0.6959
  141CHL    CL1  829  -0.083   1.038   0.566  0.0405  0.3005 -0.3514
  141CHL    CL2  830   0.196   1.117   0.555 -0.0279  0.2722 -0.0752
  141CHL      H  831   0.111   0.893   0.577  1.3523 -0.4804  0.7848
  142CHL     CL  832   1.047   3.811   0.535 -0.4349  0.1082 -0.2312
  142CHL      C  833   1.075   3.647   0.458 -0.0765 -0.1078 -0.6771
  142CHL    CL1  834   1.061   3.659   0.282 -0.1292 -0.2584  0.0470
  142CHL    CL2  835   1.239   3.589   0.492  0.2934 -0.4122 -0.1791
  142CHL      H  836   1.003   3.577   0.501  1.2390 -0.7388  0.5755
  143CHL     CL  837   2.888   3.233   1.818  0.0857 -0.2692 -0.4194
  143CHL      C  838   2.891   3.069   1.767 -0.3551 -0.6046  0.2180
  143CHL    CL1  839   2.775   2.974   1.861  0.5917 -0.0745 -0.0132
  143CHL    CL2  840   2.854   3.067   1.586 -0.2075  0.3664  0.4004
  143CHL      H  841   2.992   3.029   1.777 -0.0388 -0.6805 -2.4566
  144CHL     CL  842   1.946   2.756   2.004  0.5442 -0.0606  0.3399
  144CHL      C  843   1.869   2.844   2.136 -0.2617 -0.2229 -0.5253
  144CHL    CL1  844   1.993   2.923   2.236 -0.3489  0.1804 -0.0801
  144CHL    CL2  845   1.759   2.960   2.067  0.1693  0.2167 -0.3418
  144CHL      H  846   1.810   2.772   2.194  0.0388 -0.3581 -0.3867
  145CHL     CL  847   1.408   0.493   2.297 -0.1634 -0.2568  0.0912
  145CHL      C  848   1.428   0.332   2.211  0.5274  0.1356 -0.2726
  145CHL    CL1  849   1.454   0.356   2.036  0.2281  0.1948  0.2786
  145CHL    CL2  850   1.567   0.223   2.279 -0.0551  0.1508  0.4531
  145CHL      H  851   1.335   0.275   2.219 -1.0760  2.6487  0.3405
  146CHL     CL  852   0.048   0.718   1.414  0.0925  0.0720  0.2701
  146CHL      C  853   0.056   0.697   1.595 -0.2649  0.2542  0.2788
  146CHL    CL1  854   0.109   0.849   1.671  0.3716 -0.0054  0.2419
  146CHL    CL2  855  -0.113   0.659   1.666  0.1022  0.1073  0.1078
  146CHL      H  856   0.121   0.610   1.610 -1.4326 -1.0865 -1.9569
  147CHL     CL  857   1.216   0.719   2.160 -0.3822  0.0613 -0.3814
  147CHL      C  858   1.102   0.608   2.074 -0.7516 -0.1967 -0.0802
  147CHL    CL1  859   1.188   0.548   1.923  0.1001  0.4859 -0.6623
  147CHL    CL2  860   1.066   0.464   2.166 -0.2310  0.4506 -0.0370
  147CHL      H  861   1.010   0.660   2.044  0.2334  0.5138 -2.0606
  148CHL     CL  862   1.137   2.215   0.726  0.1692  0.3485 -0.0208
  148CHL      C  863   1.094   2.288   0.889 -0.0223  0.0559  0.1925
  148CHL    CL1  864   1.137   2.457   0.919  0.0351  0.7544 -0.2303
  148CHL    CL2  865   0.924   2.258   0.931  0.1195  0.4323 -0.3889
  148CHL      H  866   1.157   2.237   0.962  1.2854  2.1483  0.6120
  149CHL     CL  867   2.162   2.583   0.454  0.0435 -0.0544 -0.3291
  149CHL      C  868   2.272   2.731   0.467  0.1048  0.2148 -0.0284
  149CHL    CL1  869   2.419   2.675   0.560 -0.1955 -0.2564 -0.0409
  149CHL    CL2  870   2.320   2.787   0.306 -0.0350 -0.0936 -0.0557
  149CHL      H  871   2.230   2.814   0.525  2.5387  0.7108  1.1599
  150CHL     CL  872   3.721   2.598   3.610  0.1172  0.0204  0.5897
  150CHL      C  873   3.555   2.549   3.662 -0.7791  0.5568 -0.7409
  150CHL    CL1  874   3.535   2.586   3.840  0.0013 -0.0915 -0.0073
  150CHL    CL2  875   3.457   2.660   3.564  0.2739 -0.1683 -0.0690
  150CHL      H  876   3.531   2.445   3.638 -2.3955  0.8763 -0.6141
  151CHL     CL  877   3.773   0.126   3.644  0.0852 -0.3615 -0.3880
  151CHL      C  878   3.724   0.286   3.582 -0.4575 -0.1978  0.3281
  151CHL    CL1  879   3.735   0.303   3.400  0.0256  0.1490 -0.3271
  151CHL    CL2  880   3.562   0.332   3.634 -0.1086 -0.6323 -0.0773
  151CHL      H  881   3.800   0.357   3.617 -1.1936 -0.0771  1.7207
  152CHL     CL  882   3.502   3.666   0.733 -0.1703 -0.2283 -0.1354
  152CHL      C  883   3.449   3.502   0.723 -0.0836  0.2859  0.1947
  152CHL    CL1  884   3.542   3.407   0.607  0.1031  0.1826  0.1608
  152CHL    CL2  885   3.455   3.436   0.888 -0.0476  0.2458 -0.1094
  152CHL      H  886   3.351   3.503   0.675  0.8787 -4.1472 -2.5184
  153CHL     CL  887   0.182   2.193   1.294 -0.0347 -0.5119  0.0690
  153CHL      C  888   0.241   2.024   1.290  0.5179 -0.1600 -0.2363
  153CHL    CL1  889   0.108   1.931   1.360 -0.2751 -0.0673  0.4757
  153CHL    CL2  890   0.287   1.966   1.134  0.1581 -0.0054  0.1526
  153CHL      H  891   0.329   2.031   1.354  1.6678  1.5105 -1.8819
  154CHL     CL  892   0.053   1.348   2.516 -0.0069  0.4077  0.4554
  154CHL      C  893   0.044   1.403   2.343 -0.0009  0.2508 -0.5362
  154CHL    CL1  894  -0.093   1.525   2.328  0.0080  0.2232 -0.2871
  154CHL    CL2  895   0.200   1.468   2.299  0.2775  0.1574  0.4895
  154CHL      H  896   0.018   1.317   2.280  2.2659 -0.2881 -0.7976
  155CHL     CL  897   1.276   0.739   3.591  0.0577  0.2603  0.0635
  155CHL      C  898   1.421   0.677   3.515 -0.2377 -0.0098  0.0302
  155CHL    CL1  899   1.526   0.807   3.452 -0.1753  0.0122  0.2035
  155CHL    CL2  900   1.509   0.568   3.629 -0.5058  0.4196 -0.0613
  155CHL      H  901   1.394   0.613   3.430  0.0290 -0.0390 -0.0311
  156CHL     CL  902   2.535   1.596   3.751 -0.7998  0.3259  0.0129
  156CHL      C  903   2.606   1.561   3.910  0.1151 -0.3692  0.2210
  156CHL    CL1  904   2.608   1.712   4.010 -0.2568  0.6050 -0.5518
  156CHL    CL2  905   2.530   1.415   3.993  0.0371 -0.0682  0.0713
  156CHL      H  906   2.712   1.535   3.901 -0.2103 -1.3172 -1.1330
  157CHL     CL  907   3.007   2.410   2.707 -0.0306 -0.0185  0.2292
  157CHL      C  908   3.137   2.475   2.820  0.1612 -0.3563  1.5050
  157CHL    CL1  909   3.186   2.362   2.939  0.3070 -0.2203 -0.3617
  157CHL    CL2  910   3.266   2.525   2.705 -0.4972 -0.1434  0.0957
  157CHL      H  911   3.103   2.564   2.876 -1.3007  0.0012  0.1299
  158CHL     CL  912   3.606   3.005   1.738 -0.3050  0.1604 -0.3005
  158CHL      C  913   3.663   2.841   1.692 -0.2950 -0.3567 -0.1311
  158CHL    CL1  914   3.528   2.733   1.668 -0.2908  0.4504  0.0597
  158CHL    CL2  915   3.768   2.842   1.549 -0.2797  0.0091 -0.2247
  158CHL      H  916   3.718   2.808   1.780 -0.8030  0.3224  0.4606
  159CHL     CL  917   0.748   1.961   0.418 -0.1925  0.4253 -0.1046
  159CHL      C  918   0.670   2.030   0.573 -0.1975 -0.3959  0.1794
  159CHL    CL1  919   0.768   1.980   0.710  0.2088 -0.2391  0.4264
  159CHL    CL2  920   0.671   2.211   0.572 -0.3065 -0.0564 -0.1892
  159CHL      H  921   0.568   1.993   0.586 -0.4711  0.2118 -0.2313
  160CHL     CL  922   1.286   2.527   0.089  0.1211  0.0556  0.7873
  160CHL      C  923   1.439   2.501  -0.005 -0.1840 -0.6216 -0.1839
  160CHL    CL1  924   1.412   2.604  -0.152 -0.4110 -0.3209 -0.0583
  160CHL    CL2  925   1.581   2.556   0.083 -0.2069  0.1656 -0.4397
  160CHL      H  926   1.444   2.393  -0.020 -0.6565 -0.8557  1.1929
  161CHL     CL  927   3.798   0.288   1.794 -0.1239  0.2773  0.1833
  161CHL      C  928   3.927   0.368   1.883  0.0557  0.2727  0.4890
  161CHL    CL1  929   4.081   0.396   1.779  0.0787  0.0739  0.2217
  161CHL    CL2  930   3.864   0.526   1.941 -0.2926  0.4935 -0.0569
  161CHL      H  931   3.959   0.303   1.965 -0.0110  0.4937  0.6879
  162CHL     CL  932   1.288   3.668   2.932 -0.2322 -0.1011 -0.2835
  162CHL      C  933   1.296   3.606   2.761 -0.1913 -0.1317  0.9565
  162CHL    CL1  934   1.352   3.440   2.774 -0.0249 -0.3526  0.2188
  162CHL    CL2  935   1.134   3.615   2.690 -0.2449  0.2558 -0.1087
  162CHL      H  936   1.361   3.667   2.698 -0.6317 -1.2598 -0.6440
  163CHL     CL  937   3.226   1.341   1.676 -0.0124 -0.1396 -0.2015
  163CHL      C  938   3.376   1.423   1.607  0.0461 -0.2275  0.1556
  163CHL    CL1  939   3.455   1.501   1.749  0.0157  0.2796 -0.0884
  163CHL    CL2  940   3.480   1.300   1.524 -0.0828  0.4304  0.1089
  163CHL      H  941   3.358   1.499   1.531  2.7839  0.7002  0.3306
  164CHL     CL  942   2.264   1.390   2.825 -0.3191  0.3201 -0.3922
  164CHL      C  943   2.308   1.227   2.889 -0.4502  0.0759  0.0730
  164CHL    CL1  944   2.249   1.214   3.058  0.2159 -0.1580 -0.0358
  164CHL    CL2  945   2.233   1.098   2.798 -0.0399 -0.6519 -0.0066
  164CHL      H  946   2.416   1.218   2.873 -0.4726  2.4480 -2.0932
  165CHL     CL  947   1.627   3.664   3.148 -0.0308  0.3420  0.0134
  165CHL      C  948   1.752   3.781   3.198  0.9357 -0.0579  0.1716
  165CHL    CL1  949   1.803   3.891   3.063 -0.3666  0.0534  0.0004
  165CHL    CL2  950   1.678   3.891   3.334  0.1291  0.0803  0.5441
  165CHL      H  951   1.833   3.722   3.244  0.0102 -0.9589  0.7031
  166CHL     CL  952   1.040   0.120   2.556  0.3385  0.0334 -0.0997
  166CHL      C  953   1.142   0.226   2.658  0.6292  0.0217  0.2190
  166CHL    CL1  954   1.311   0.157   2.679  0.0966 -0.1903  0.3181
  166CHL    CL2  955   1.153   0.394   2.589 -0.1592  0.2371  0.5266
  166CHL      H  956   1.096   0.225   2.757 -1.3558  0.4089 -0.6525
  167CHL     CL  957   0.157   0.020   2.892  0.2137  0.0502 -0.6436
  167CHL      C  958   0.120   0.136   3.023  0.0631  0.3688 -0.0466
  167CHL    CL1  959   0.095   0.281   2.940 -0.1184  0.3679 -0.2953
  167CHL    CL2  960  -0.029   0.078   3.112  0.3543 -0.4590  0.2146
  167CHL      H  961   0.206   0.141   3.090  0.1627 -2.7422  0.1887
  168CHL     CL  962   3.722   2.857   0.566 -0.2012  0.0058 -0.1019
  168CHL      C  963   3.826   3.002   0.586 -0.0086  0.1651 -0.5977
  168CHL    CL1  964   3.714   3.149   0.618 -0.1160  0.3864 -0.4418
  168CHL    CL2  965   3.951   2.982   0.713 -0.2187 -0.3416 -0.4015
  168CHL      H  966   3.877   3.013   0.490  1.0107 -0.7606 -0.1913
  169CHL     CL  967   1.528   0.436   3.224  0.0232 -0.0983  0.1530
  169CHL      C  968   1.403   0.473   3.114 -0.4129 -0.4084 -0.2657
  169CHL    CL1  969   1.339   0.641   3.134 -0.1721  0.3759  0.2953
  169CHL    CL2  970   1.458   0.455   2.945  0.2676 -0.2424 -0.2118
  169CHL      H  971   1.323   0.401   3.133  0.3567 -0.8132  1.6430
  170CHL     CL  972   3.202   0.338   2.288 -0.0091 -0.0176 -0.3462
  170CHL      C  973   3.262   0.177   2.237 -0.5708  0.0270  0.5858
  170CHL    CL1  974   3.337   0.083   2.368  0.4241  0.2316  0.0032
  170CHL    CL2  975   3.130   0.083   2.169 -0.0050  0.1937 -0.3682
  170CHL      H  976   3.338   0.192   2.159 -0.6001  1.1950  0.7531
  171CHL     CL  977   3.485   0.541   3.059  0.0269 -0.2383 -0.3176
  171CHL      C  978   3.347   0.453   3.123 -0.5915  0.8445 -0.6347
  171CHL    CL1  979   3.276   0.355   2.997 -0.1987  0.3584  0.2242
  171CHL    CL2  980   3.418   0.336   3.257  0.1176 -0.2053  0.3391
  171CHL      H  981   3.275   0.519   3.174 -0.4110 -0.7181  1.8199
  172CHL     CL  982   2.300   0.940   3.646  0.5360 -0.1999  0.0716
  172CHL      C  983   2.283   0.903   3.818  0.1850 -0.0822  0.1191
  172CHL    CL1  984   2.382   1.018   3.912 -0.5211  0.2442 -0.4114
  172CHL    CL2  985   2.112   0.930   3.862  0.2186 -0.2805  0.1964
  172CHL      H  986   2.310   0.801   3.845  0.1083  0.0957  0.8882
  173CHL     CL  987   3.484   0.738   2.665  0.3569  0.1881 -0.1170
  173CHL      C  988   3.532   0.572   2.645 -0.0175  0.4759  0.2228
  173CHL    CL1  989   3.446   0.494   2.502  0.4247  0.2892  0.1240
  173CHL    CL2  990   3.714   0.568   2.614  0.1958 -0.3568  0.2143
  173CHL      H  991   3.512   0.525   2.742 -1.3536  0.8775  0.1711
  174CHL     CL  992   3.075   3.246   0.009 -0.0584 -0.1829  0.3107
  174CHL      C  993   3.121   3.242  -0.172  0.2220  0.2204  0.0728
  174CHL    CL1  994   3.278   3.335  -0.191  0.1992  0.3637  0.0848
  174CHL    CL2  995   3.132   3.066  -0.227 -0.1798 -0.3939 -0.4211
  174CHL      H  996   3.042   3.289  -0.232  0.2948  0.8583  0.4665
  175CHL     CL  997   0.639   0.016   2.555  0.2466 -0.7427  0.2779
  175CHL      C  998   0.525   0.133   2.635  0.5320 -0.3431 -0.4589
  175CHL    CL1  999   0.612   0.290   2.677  0.2009 -0.2776  0.4181
  175CHL    CL2 1000   0.385   0.155   2.536 -0.6102 -0.0442  0.0736
  175CHL      H 1001   0.496   0.085   2.730 -0.6709  0.9406 -0.1433
  176CHL     CL 1002   0.129   3.421   1.262  0.0856  0.3463  0.0673
  176CHL      C 1003   0.046   3.257   1.264 -0.5530  0.2509 -1.1513
  176CHL    CL1 1004   0.062   3.168   1.111  0.8697  0.4298 -0.1310
  176CHL    CL2 1005   0.102   3.158   1.402  0.2185  0.1140  0.2493
  176CHL      H 1006  -0.062   3.271   1.275 -0.4557 -0.1461  0.4099
  177CHL     CL 1007   1.672   0.851   0.491  0.0928  0.0153  0.1140
  177CHL      C 1008   1.778   0.975   0.415 -0.1797  0.3632 -0.8224
  177CHL    CL1 1009   1.698   1.036   0.264 -1.0385 -0.0867  0.0066
  177CHL    CL2 1010   1.814   1.110   0.532  0.0684  0.5676 -0.1208
  177CHL      H 1011   1.871   0.933   0.375  0.1491  0.4711 -0.1829
  178CHL     CL 1012   0.238   1.766   3.275  0.0467  0.1929  0.2722
  178CHL      C 1013   0.130   1.766   3.419  0.5607 -0.1131  0.4680
  178CHL    CL1 1014   0.232   1.740   3.562 -0.1100 -0.3957  0.2119
  178CHL    CL2 1015   0.042   1.926   3.411 -0.2098 -0.0327 -0.1125
  178CHL      H 1016   0.046   1.697   3.408 -0.1136  0.4488  1.8352
  179CHL     CL 1017   3.631   0.094   2.777  0.3786 -0.2144  0.2610
  179CHL      C 1018   3.470   0.045   2.856  0.0194  0.3128 -0.9638
  179CHL    CL1 1019   3.340   0.049   2.726 -0.0324  0.3500 -0.5988
  179CHL    CL2 1020   3.481  -0.125   2.919  0.1623  0.2293 -0.6800
  179CHL      H 1021   3.446   0.119   2.933 -1.6345  1.6762 -2.6665
  180CHL     CL 1022   0.288   2.718   0.449 -0.1351 -0.1793 -0.0847
  180CHL      C 1023   0.462   2.748   0.486  0.1902 -0.6634 -0.0879
  180CHL    CL1 1024   0.557   2.727   0.339  0.4008  0.6861  0.0315
  180CHL    CL2 1025   0.468   2.913   0.551 -0.1873 -0.0205 -0.5988
  180CHL      H 1026   0.502   2.686   0.567 -0.2527 -0.4280  0.3232
  181CHL     CL 1027   3.001   1.688   0.596 -0.0382 -0.3531 -0.4081
  181CHL      C 1028   2.869   1.796   0.534  0.3571 -0.1543  0.5292
  181CHL    CL1 1029   2.714   1.699   0.528  0.1474  0.1411 -0.3777
  181CHL    CL2 1030   2.863   1.949   0.639  0.2145 -0.2467  0.0869
  181CHL      H 1031   2.900   1.827   0.434  0.6174 -0.3016  0.5628
  182CHL     CL 1032   3.648   1.980   2.478 -0.0749 -0.2597 -0.1332
  182CHL      C 1033   3.821   2.009   2.414  0.4453  0.6638  0.2216
  182CHL    CL1 1034   3.936   1.872   2.448 -0.1872  0.3198  0.0970
  182CHL    CL2 1035   3.816   2.071   2.243  0.2456  0.0817  0.0184
  182CHL      H 1036   3.860   2.096   2.468 -0.2776  1.1664 -0.0551
  183CHL     CL 1037   2.985   0.613   0.284 -0.0560  0.0869  0.3862
  183CHL      C 1038   3.014   0.566   0.455 -0.4697  0.0922  0.8824
  183CHL    CL1 1039   3.034   0.388   0.472 -0.0767  0.2410 -0.1887
  183CHL    CL2 1040   3.155   0.639   0.527 -0.0792 -0.3354  0.0446
  183CHL      H 1041   2.933   0.591   0.525 -1.9392 -0.5625 -0.5009
  184CHL     CL 1042   1.768   3.658   2.102 -0.2349  0.1992 -0.1109
  184CHL      C 1043   1.616   3.583   2.133  0.0436 -0.9264 -0.5856
  184CHL    CL1 1044   1.643   3.408   2.159  0.4388 -0.1536 -0.1586
  184CHL    CL2 1045   1.537   3.646   2.273  0.2317  0.0295  0.1113
  184CHL      H 1046   1.549   3.598   2.047 -0.7157  0.8607  0.2681
  185CHL     CL 1047   0.585   1.533   2.469  0.1627 -0.3988  0.0203
  185CHL      C 1048   0.653   1.502   2.312  0.5119  0.1807  0.4029
  185CHL    CL1 1049   0.737   1.648   2.273  0.0100 -0.4736  0.1955
  185CHL    CL2 1050   0.772   1.365   2.326 -0.1064  0.3516 -0.0016
  185CHL      H 1051   0.573   1.474   2.243 -0.4599 -0.9052  1.8972
  186CHL     CL 1052   0.316   1.360   0.921  0.0657 -0.1711  0.1795
  186CHL      C 1053   0.404   1.440   1.059 -0.0729  0.2044  0.1467
  186CHL    CL1 1054   0.269   1.507   1.168 -0.1501  0.1624 -0.5029
  186CHL    CL2 1055   0.518   1.316   1.151  0.0814 -0.1665 -0.5418
  186CHL      H 1056   0.462   1.525   1.022  0.4985 -0.6249 -0.9137
  187CHL     CL 1057   0.200   2.060   1.706 -0.1453  0.4094  0.0003
  187CHL      C 1058   0.044   2.065   1.799 -0.2052  0.8921  0.6966
  187CHL    CL1 1059   0.083   1.969   1.941 -0.0674 -0.0947 -0.2785
  187CHL    CL2 1060  -0.009   2.227   1.840  0.6466  0.1902  0.4907
  187CHL      H 1061  -0.026   2.011   1.735  0.6495  0.5727  0.0186
  188CHL     CL 1062   1.447   1.845   3.073  0.3873 -0.0216  0.2497
  188CHL      C 1063   1.321   1.958   3.039 -0.3886 -0.4925 -0.3051
  188CHL    CL1 1064   1.228   1.904   2.881 -0.0040 -0.0435 -0.1323
  188CHL    CL2 1065   1.208   1.984   3.188  0.3079  0.3692  0.0632
  188CHL      H 1066   1.378   2.050   3.022 -0.8557  0.0542  0.9884
  189CHL     CL 1067   3.127   1.320   3.790 -0.2930  0.0961  0.6612
  189CHL      C 1068   3.264   1.330   3.903 -0.4408  0.1397  0.6215
  189CHL    CL1 1069   3.323   1.167   3.953 -0.3728 -0.3004 -0.0974
  189CHL    CL2 1070   3.400   1.439   3.821  0.6425 -0.3684  0.2077
  189CHL      H 1071   3.236   1.387   3.992 -2.1697 -0.2655  0.3720
  190CHL     CL 1072   3.745   1.171   1.325 -0.0775 -0.1568 -0.3416
  190CHL      C 1073   3.797   1.062   1.193  0.2068 -0.4670  0.5683
  190CHL    CL1 1074   3.663   0.995   1.100 -0.1497  0.1071 -0.2794
  190CHL    CL2 1075   3.892   1.151   1.080 -0.2131 -0.1610 -0.2379
  190CHL      H 1076   3.854   0.980   1.238  0.4012 -0.3137  0.5996
  191CHL     CL 1077   3.198   3.006   1.143  0.3606 -0.7685 -0.0048
  191CHL      C 1078   3.021   2.981   1.110  0.2171  0.6693  0.2743
  191CHL    CL1 1079   2.988   2.810   1.069 -0.0621 -0.1135  0.6923
  191CHL    CL2 1080   2.916   3.038   1.244  0.6310 -0.2520  0.0238
  191CHL      H 1081   2.995   3.035   1.018  1.7575 -0.2188 -0.7115
  192CHL     CL 1082   2.727   2.086   0.325 -0.0957 -0.0476 -0.1096
  192CHL      C 1083   2.575   2.122   0.417  0.1104 -0.1249 -0.6100
  192CHL    CL1 1084   2.494   1.965   0.429  0.0229  0.5007  0.3644
  192CHL    CL2 1085   2.618   2.194   0.578 -0.0202  0.0386 -0.1044
  192CHL      H 1086   2.508   2.194   0.369 -0.1884 -0.4484 -0.6849
  193CHL     CL 1087   3.264   1.076   2.025 -0.6816 -0.0679  0.1824
  193CHL      C 1088   3.087   1.090   2.033  0.1429  0.0530 -0.2941
  193CHL    CL1 1089   3.031   1.226   2.142  0.2301  0.2032 -0.1343
  193CHL    CL2 1090   3.009   1.099   1.871  0.1352  0.6644 -0.3123
  193CHL      H 1091   3.055   0.999   2.085  2.9362  0.2236  1.9520
  194CHL     CL 1092   1.550   1.067   2.436 -0.4532 -0.0384 -0.2740
  194CHL      C 1093   1.630   0.999   2.286 -0.6821 -0.7283 -0.2342
  194CHL    CL1 1094   1.716   1.132   2.201 -0.1371 -0.4377 -0.4672
  194CHL    CL2 1095   1.745   0.867   2.335  0.2780  0.1331 -0.0796
  194CHL      H 1096   1.552   0.962   2.220 -1.6451 -1.1414  1.1104
  195CHL     CL 1097   2.751   0.279   0.179  0.1143 -0.2130  0.3599
  195CHL      C 1098   2.750   0.100   0.132 -0.1644  1.0309  0.4083
  195CHL    CL1 1099   2.683   0.085  -0.033  0.1822 -0.2907  0.4247
  195CHL    CL2 1100   2.920   0.034   0.133 -0.2976 -0.2401 -0.4189
  195CHL      H 1101   2.691   0.046   0.206  2.1238  2.1960  3.2725
  196CHL     CL 1102   3.563   2.955   3.445 -0.0556  0.2481  0.1905
  196CHL      C 1103   3.705   2.876   3.372  0.4352  0.2048  0.3554
  196CHL    CL1 1104   3.663   2.752   3.255 -0.1300 -0.0066  0.0092
  196CHL    CL2 1105   3.798   2.998   3.277  0.0485 -0.3272 -0.2734
  196CHL      H 1106   3.773   2.845   3.452  1.6617 -0.1694 -0.7875
  197CHL     CL 1107   2.983   2.393   0.064  0.0936 -0.3616  0.1161
  197CHL      C 1108   3.096   2.496  -0.036  0.1570 -0.0868 -0.3750
  197CHL    CL1 1109   3.020   2.513  -0.205 -0.0381  0.2928  0.2120
  197CHL    CL2 1110   3.132   2.652   0.047 -0.5906 -0.0844  0.2043
  197CHL      H 1111   3.182   2.431  -0.055  0.1716  0.0396 -0.7458
  198CHL     CL 1112   1.618   3.353   0.775 -0.1543 -0.2923 -0.1087
  198CHL      C 1113   1.552   3.519   0.820 -0.4780 -0.1447 -0.7083
  198CHL    CL1 1114   1.589   3.569   0.998  0.2260 -0.4282  0.3404
  198CHL    CL2 1115   1.624   3.662   0.724  0.1811 -0.2471 -0.2876
  198CHL      H 1116   1.443   3.508   0.813 -0.3398 -1.7886 -0.8849
  199CHL     CL 1117   1.876   0.160   1.928  0.3210 -0.0417 -0.0106
  199CHL      C 1118   2.055   0.141   1.918 -0.1435  0.7026 -0.2168
  199CHL    CL1 1119   2.124   0.050   2.065  0.0568  0.0782  0.4527
  199CHL    CL2 1120   2.091   0.059   1.771 -0.0936 -0.1014 -0.4345
  199CHL      H 1121   2.116   0.232   1.916  0.7950  0.1596  1.6060
  200CHL     CL 1122   2.889   0.658   2.044 -0.0254 -0.0428  0.5038
  200CHL      C 1123   2.947   0.609   1.874  0.3134 -0.1315  0.8026
  200CHL    CL1 1124   3.014   0.748   1.784 -0.0766  0.0708 -0.0570
  200CHL    CL2 1125   3.088   0.496   1.888  0.0294  0.5567  0.0102
  200CHL      H 1126   2.864   0.568   1.816  0.0503 -1.0489  1.7946
  201CHL     CL 1127   0.561   2.994   2.216 -0.3787 -0.0214  0.1262
  201CHL      C 1128   0.626   2.999   2.046  0.0832  0.9102  0.4251
  201CHL    CL1 1129   0.662   2.832   1.979 -0.3369 -0.0836 -0.1063
  201CHL    CL2 1130   0.505   3.067   1.936 -0.0896 -0.5445  0.1343
  201CHL      H 1131   0.714   3.063   2.033  3.3035 -3.3035 -0.9391
  202CHL     CL 1132   2.005   0.749   2.591  0.0723  0.2620  0.0903
  202CHL      C 1133   2.143   0.842   2.529 -0.4784  0.0001  0.4663
  202CHL    CL1 1134   2.287   0.730   2.515  0.2048 -0.7112  0.3098
  202CHL    CL2 1135   2.099   0.901   2.375  0.0425 -0.0842 -0.2724
  202CHL      H 1136   2.181   0.920   2.597  2.7867 -1.6407  0.7403
  203CHL     CL 1137   2.022   3.026   1.112 -0.5076  0.5299  0.2939
  203CHL      C 1138   2.145   3.065   0.992 -0.2771  0.2384  0.8798
  203CHL    CL1 1139   2.064   3.072   0.831  0.2442 -0.0631 -0.2358
  203CHL    CL2 1140   2.227   3.216   1.023 -0.1959  0.0389 -0.5460
  203CHL      H 1141   2.218   2.983   0.986  1.9416  2.1772 -0.5911
  204CHL     CL 1142   0.221   3.609   2.567 -0.2184  0.3266  0.3330
  204CHL      C 1143   0.087   3.491   2.544 -0.2546  0.6808 -0.2920
  204CHL    CL1 1144   0.042   3.466   2.376 -0.3062  0.3033 -0.4454
  204CHL    CL2 1145   0.121   3.333   2.624  0.0838  0.1120  0.0195
  204CHL      H 1146  -0.009   3.518   2.588 -0.9446 -0.9129 -0.7353
  205CHL     CL 1147   2.621   0.109   2.726  0.3250  0.0399  0.0121
  205CHL      C 1148   2.447   0.165   2.748 -1.0685  0.9159  0.2595
  205CHL    CL1 1149   2.391   0.248   2.596 -0.1245  0.0228  0.0050
  205CHL    CL2 1150   2.341   0.025   2.763  0.0239  0.1064  0.3505
  205CHL      H 1151   2.427   0.235   2.829 -1.1356 -1.6122  2.5593
  206CHL     CL 1152   2.507   1.323   1.611  0.1140  0.1065  0.0255
  206CHL      C 1153   2.657   1.218   1.639  0.1929 -0.3267 -0.5615
  206CHL    CL1 1154   2.709   1.148   1.481 -0.1549  0.0144 -0.0580
  206CHL    CL2 1155   2.790   1.310   1.728  0.3297  0.0219  0.2527
  206CHL      H 1156   2.625   1.136   1.704  0.4885  0.3384  0.4466
  207CHL     CL 1157   3.024   1.643   1.946 -0.0137  0.1656 -0.0362
  207CHL      C 1158   2.868   1.578   2.026 -0.0498  0.3492 -0.1411
  207CHL    CL1 1159   2.876   1.579   2.202  0.1568 -0.1427  0.1894
  207CHL    CL2 1160   2.733   1.677   1.972 -0.2238  0.4463 -0.3737
  207CHL      H 1161   2.852   1.475   1.992  0.4764 -0.0990  0.8996
  208CHL     CL 1162   0.077   2.866   3.767  0.0737 -0.3564  0.1957
  208CHL      C 1163   0.116   2.816   3.935  0.2567  0.5988 -0.0571
  208CHL    CL1 1164   0.240   2.925   4.000  0.4383  0.4944  0.2466
  208CHL    CL2 1165  -0.046   2.809   4.020  0.0864  0.4180 -0.2923
  208CHL      H 1166   0.149   2.712   3.942  0.9349  0.6927 -1.5965
  209CHL     CL 1167   0.665   0.994   2.384 -0.2387  0.1878 -0.3652
  209CHL      C 1168   0.486   1.019   2.401 -0.4324 -0.7964  0.3972
  209CHL    CL1 1169   0.443   1.066   2.567 -0.4485 -0.5770 -0.1520
  209CHL    CL2 1170   0.454   1.157   2.283  0.3670  0.0129  0.0748
  209CHL      H 1171   0.433   0.933   2.361 -0.0280 -1.4627  1.2439
  210CHL     CL 1172   2.536   1.164   2.580 -0.2128 -0.3479 -0.1616
  210CHL      C 1173   2.564   1.058   2.441  0.2905 -0.3066  0.0703
  210CHL    CL1 1174   2.617   0.903   2.520 -0.1363  0.1751  0.1092
  210CHL    CL2 1175   2.415   1.035   2.343 -0.5249  0.3219  0.3211
  210CHL      H 1176   2.641   1.090   2.371  0.9466 -0.0768  0.8847
  211CHL     CL 1177   3.428   0.365   0.357 -0.1595  0.0393 -0.2725
  211CHL      C 1178   3.492   0.208   0.293  0.7942  0.1056  0.0021
  211CHL    CL1 1179   3.362   0.090   0.273 -0.0131 -0.1905 -0.0440
  211CHL    CL2 1180   3.565   0.261   0.137  0.2320  0.0839  0.3279
  211CHL      H 1181   3.568   0.164   0.358  1.0842 -1.3010 -1.2286
  212CHL     CL 1182   1.912   1.085   1.638  0.1046 -0.3529 -0.2359
  212CHL      C 1183   1.791   0.945   1.634 -0.4471  0.1688  0.1734
  212CHL    CL1 1184   1.660   0.990   1.753 -0.0282 -0.0144 -0.1678
  212CHL    CL2 1185   1.727   0.916   1.465 -0.3205 -0.1193 -0.0780
  212CHL      H 1186   1.832   0.851   1.673 -0.1195  0.4879  0.5994
  213CHL     CL 1187   0.745   2.653   2.370 -0.2500 -0.0120 -0.0747
  213CHL      C 1188   0.917   2.683   2.333 -0.4787  0.1212  0.1010
  213CHL    CL1 1189   1.019   2.556   2.394 -0.0228  0.5391 -0.0404
  213CHL    CL2 1190   0.926   2.714   2.163  0.0632  0.2535  0.3193
  213CHL      H 1191   0.949   2.773   2.387  1.8484 -0.6372  0.1026
  214CHL     CL 1192   2.153   0.143   1.056  0.0228  0.2322  0.3267
  214CHL      C 1193   1.987   0.158   0.999  0.7677 -0.0948 -0.0565
  214CHL    CL1 1194   1.883   0.042   1.070  0.0771  0.2968 -0.1368
  214CHL    CL2 1195   1.913   0.321   1.033  0.0825  0.1103 -0.0510
  214CHL      H 1196   1.999   0.139   0.892  1.0825  2.7271 -0.5789
  215CHL     CL 1197   1.749   0.050   2.556  0.1077  0.6357  0.4267
  215CHL      C 1198   1.905   0.062   2.463  0.7626  0.1265 -0.3938
  215CHL    CL1 1199   2.031   0.137   2.575  0.0501 -0.7161  0.1349
  215CHL    CL2 1200   1.956  -0.104   2.418  0.1109 -0.0156  0.0569
  215CHL      H 1201   1.881   0.125   2.376  1.3184  2.5634  1.1207
  216CHL     CL 1202   1.106   2.467   0.407  0.0873 -0.1342 -0.2918
  216CHL      C 1203   0.947   2.397   0.387  0.3448 -0.3297 -0.6254
  216CHL    CL1 1204   0.832   2.536   0.368 -0.0433  0.0374 -0.2761
  216CHL    CL2 1205   0.940   2.263   0.255  0.1805  0.2661 -0.0619
  216CHL      H 1206   0.912   2.356   0.482 -2.4309  0.0670 -1.3764
  217CHL     CL 1207   1.051   0.706   2.740 -0.0085 -0.0871 -0.1608
  217CHL      C 1208   0.980   0.613   2.878 -0.2469  0.1891 -0.5413
  217CHL    CL1 1209   0.859   0.498   2.825 -0.3921 -0.0477 -0.0006
  217CHL    CL2 1210   1.115   0.507   2.953  0.2203 -0.1982  0.1883
  217CHL      H 1211   0.938   0.673   2.960  0.1502 -1.1415  0.6665
  218CHL     CL 1212   0.537   2.524   3.388  0.3551 -0.2714 -0.0213
  218CHL      C 1213   0.502   2.694   3.387  0.1936 -0.3238  0.6945
  218CHL    CL1 1214   0.328   2.706   3.410 -0.3529  0.0103  0.2157
  218CHL    CL2 1215   0.583   2.777   3.527  0.0573 -0.1403  0.4032
  218CHL      H 1216   0.536   2.743   3.295  0.6052  1.3363  1.6856
  219CHL     CL 1217   3.540   0.545   2.050 -0.2158  0.0323 -0.3168
  219CHL      C 1218   3.437   0.678   1.990 -0.0691  0.5787 -0.0704
  219CHL    CL1 1219   3.284   0.678   2.079  0.1243  0.0190 -0.0631
  219CHL    CL2 1220   3.520   0.830   2.025  0.0764  0.4290  0.1516
  219CHL      H 1221   3.418   0.669   1.883 -1.0487 -0.2202  0.1488
  220CHL     CL 1222   0.921   1.911   3.767  0.1026 -0.2218  0.1821
  220CHL      C 1223   0.860   2.058   3.671  0.5321  0.6788 -0.4384
  220CHL    CL1 1224   0.837   2.210   3.773 -0.2292  0.2338 -0.0514
  220CHL    CL2 1225   0.982   2.100   3.547  0.2549 -0.1700  0.0778
  220CHL      H 1226   0.763   2.036   3.627  0.2460  0.1499  0.4345
  221CHL     CL 1227   3.514   2.696   2.879  0.2670  0.0688  0.2250
  221CHL      C 1228   3.484   2.852   2.782 -0.0700  0.5673  0.4337
  221CHL    CL1 1229   3.478   2.832   2.608 -0.1586  0.3396 -0.2874
  221CHL    CL2 1230   3.332   2.908   2.849 -0.1913  0.1868 -0.2473
  221CHL      H 1231   3.567   2.919   2.806 -1.0086  1.7458  0.4540
  222CHL     CL 1232   2.240   1.617   0.106  0.0386 -0.3321 -0.0585
  222CHL      C 1233   2.219   1.790   0.086  0.6460 -0.5841 -0.5091
  222CHL    CL1 1234   2.099   1.805  -0.046 -0.0464  0.2253 -0.2899
  222CHL    CL2 1235   2.150   1.863   0.245  0.3301 -0.1400  0.1316
  222CHL      H 1236   2.310   1.845   0.064 -0.0876  1.9037  2.0207
  223CHL     CL 1237   0.896   2.461   3.446 -0.1834  0.1739  0.1753
  223CHL      C 1238   0.962   2.620   3.411  0.3378  0.6638 -0.2485
  223CHL    CL1 1239   1.130   2.641   3.482  0.2171 -0.3496 -0.3466
  223CHL    CL2 1240   0.975   2.651   3.233 -0.6660 -0.3053 -0.0181
  223CHL      H 1241   0.892   2.692   3.456 -3.4415  1.3896 -6.1070
  224CHL     CL 1242   1.745   1.731   3.810  0.1458  0.0177  0.1453
  224CHL      C 1243   1.850   1.588   3.841 -0.0942 -0.0938  0.1615
  224CHL    CL1 1244   1.740   1.466   3.916  0.1280 -0.1363  0.2021
  224CHL    CL2 1245   1.937   1.538   3.688 -0.1439 -0.4820 -0.1962
  224CHL      H 1246   1.927   1.616   3.913  0.0824  0.1915 -0.1350
  225CHL     CL 1247   3.519   0.006   1.987  0.2949  0.0329  0.2768
  225CHL      C 1248   3.599  -0.086   2.124  0.2343 -0.6872 -0.2635
  225CHL    CL1 1249   3.482  -0.230   2.171  0.1139  0.0515  0.6900
  225CHL    CL2 1250   3.759  -0.144   2.057  0.2400 -0.3944 -0.0547
  225CHL      H 1251   3.611  -0.012   2.204  0.5503  1.2196 -1.9677
  226CHL     CL 1252   0.120   3.787   0.925 -0.4131  0.0383 -0.0773
  226CHL      C 1253   0.263   3.803   0.818  0.0487 -0.2088  0.3623
  226CHL    CL1 1254   0.230   3.724   0.659  0.3103 -0.3765 -0.2446
  226CHL    CL2 1255   0.291   3.975   0.794 -0.3379  0.0244 -0.0176
  226CHL      H 1256   0.350   3.757   0.865 -1.0913 -1.3823  1.4278
  227CHL     CL 1257   1.409   1.730   0.222  0.0947  0.0199 -0.4050
  227CHL      C 1258   1.343   1.566   0.169 -0.4272  0.2715 -0.9353
  227CHL    CL1 1259   1.277   1.475   0.306  0.3780 -0.0048 -0.3970
  227CHL    CL2 1260   1.222   1.586   0.032 -0.5352 -0.2477 -0.0005
  227CHL      H 1261   1.426   1.507   0.126  0.1352  0.5943 -0.3141
  228CHL     CL 1262   0.701   1.609   0.286 -0.2766  0.1545 -0.3472
  228CHL      C 1263   0.782   1.456   0.344 -0.3514  0.6491 -0.7502
  228CHL    CL1 1264   0.681   1.310   0.362  0.0844  0.0328 -0.0174
  228CHL    CL2 1265   0.918   1.404   0.244  0.5739 -0.2311  0.3673
  228CHL      H 1266   0.827   1.477   0.442 -0.6471  0.1203 -0.4952
  229CHL     CL 1267   2.501   0.844   2.884  0.2085  0.0174  0.1072
  229CHL      C 1268   2.489   0.666   2.881  0.4571 -0.2917 -0.4607
  229CHL    CL1 1269   2.323   0.620   2.891  0.1587  0.2231 -0.1081
  229CHL    CL2 1270   2.551   0.586   2.724 -0.1929  0.4254  0.1326
  229CHL      H 1271   2.543   0.627   2.967  0.7142 -1.6914 -1.2290
  230CHL     CL 1272   1.357   2.724   2.170 -0.0788 -0.2050  0.0009
  230CHL      C 1273   1.480   2.681   2.280 -0.7502  0.7594  0.3466
  230CHL    CL1 1274   1.543   2.828   2.355 -0.2822  0.1417  0.2369
  230CHL    CL2 1275   1.435   2.571   2.416 -0.1693 -0.0859  0.4019
  230CHL      H 1276   1.567   2.633   2.234  1.2284  1.6998  2.8380
  231CHL     CL 1277   2.129   0.410   0.097 -0.3470  0.6251  0.0106
  231CHL      C 1278   2.225   0.491   0.227  0.4064  0.0224 -0.2604
  231CHL    CL1 1279   2.377   0.537   0.142  0.3904  0.3268 -0.1575
  231CHL    CL2 1280   2.146   0.637   0.273  0.0144  0.5347  0.1342
  231CHL      H 1281   2.262   0.434   0.312  0.7641 -0.4503 -0.7220
  232CHL     CL 1282   0.680   2.138   3.274 -0.1958  0.1322  0.2496
  232CHL      C 1283   0.794   2.189   3.147  0.2603 -0.4517 -0.4615
  232CHL    CL1 1284   0.848   2.050   3.042  0.0048 -0.2048 -0.3830
  232CHL    CL2 1285   0.691   2.312   3.047 -0.1981 -0.2985  0.1556
  232CHL      H 1286   0.881   2.231   3.198 -0.5093 -1.6473  1.9987
  233CHL     CL 1287   1.734   0.628   0.133 -0.2278  0.1265  0.1431
  233CHL      C 1288   1.575   0.565   0.175  0.4876  0.2482 -0.0230
  233CHL    CL1 1289   1.566   0.388   0.145  0.0073  0.2465 -0.1402
  233CHL    CL2 1290   1.546   0.575   0.355  0.1963  0.3323 -0.0216
  233CHL      H 1291   1.496   0.620   0.123 -1.9339 -1.7378  1.3483
  234CHL     CL 1292   0.036   1.365   1.591 -0.6981  0.1315 -0.4752
  234CHL      C 1293   0.213   1.384   1.579  0.2640  0.6234  0.4393
  234CHL    CL1 1294   0.289   1.457   1.722  0.0186 -0.1932  0.0583
  234CHL    CL2 1295   0.294   1.221   1.534 -0.0859  0.0963 -0.3773
  234CHL      H 1296   0.234   1.461   1.504 -0.3247  1.4208  1.0798
  235CHL     CL 1297   1.894   2.225   3.609 -0.1511  0.0855  0.5813
  235CHL      C 1298   1.812   2.072   3.653 -0.3456  0.7324 -0.5188
  235CHL    CL1 1299   1.648   2.116   3.697 -0.4334  0.2345  0.2960
  235CHL    CL2 1300   1.809   1.958   3.512 -0.1049 -0.2809 -0.0579
  235CHL      H 1301   1.860   2.014   3.733  0.6996  0.6697 -1.1638
  236CHL     CL 1302   3.530   1.579   1.205  0.0532  0.1038 -0.0219
  236CHL      C 1303   3.702   1.592   1.183 -0.5794  0.2831  0.4003
  236CHL    CL1 1304   3.758   1.472   1.065  0.6016 -0.1420  0.3583
  236CHL    CL2 1305   3.737   1.769   1.135  0.4921 -0.4783  0.0137
  236CHL      H 1306   3.754   1.580   1.278 -0.6983 -5.0198  0.0533
  237CHL     CL 1307   3.135   2.792   3.421  0.3720  0.0611  0.0135
  237CHL      C 1308   3.279   2.788   3.308  0.2495 -0.4397  0.5910
  237CHL    CL1 1309   3.254   2.672   3.174  0.4179 -0.1943  0.2291
  237CHL    CL2 1310   3.309   2.950   3.225 -0.3451  0.1928  0.0944
  237CHL      H 1311   3.379   2.765   3.344  1.4736 -0.8073 -2.6909
  238CHL     CL 1312   3.404   3.083   2.105  0.3434  0.2910 -0.1619
  238CHL      C 1313   3.431   3.241   2.023 -0.0734 -0.6685  0.2711
  238CHL    CL1 1314   3.607   3.274   1.995 -0.0511  0.3120 -0.4051
  238CHL    CL2 1315   3.345   3.255   1.864 -0.0125 -0.1501  0.0787
  238CHL      H 1316   3.393   3.320   2.089 -0.5829  0.6011 -1.4726
  239CHL     CL 1317   2.965   0.989   0.706  0.0563  0.2807  0.0430
  239CHL      C 1318   2.883   0.861   0.814 -0.0282 -0.6012 -0.1626
  239CHL    CL1 1319   2.940   0.698   0.754  0.3514 -0.1487 -0.1966
  239CHL    CL2 1320   2.922   0.886   0.982 -0.0435 -0.1006 -0.1739
  239CHL      H 1321   2.776   0.878   0.802 -0.0497 -0.6233  0.0006
  240CHL     CL 1322   3.807   0.044   0.294  0.1820 -0.7132  0.0992
  240CHL      C 1323   3.840  -0.058   0.434 -0.5055 -0.2398 -0.4549
  240CHL    CL1 1324   3.765   0.043   0.564  0.0838 -0.1549 -0.1301
  240CHL    CL2 1325   3.782  -0.232   0.403  0.3231  0.2236  0.3721
  240CHL      H 1326   3.950  -0.059   0.437 -0.4726  1.8015 -0.0367
  241CHL     CL 1327   0.255   3.662   3.227  0.2428  0.5828  0.1644
  241CHL      C 1328   0.182   3.763   3.356  0.3069  0.1836  0.1729
  241CHL    CL1 1329   0.204   3.683   3.519 -0.5659  0.2144  0.1751
  241CHL    CL2 1330   0.261   3.926   3.359 -0.0091  0.2153  0.0056
  241CHL      H 1331   0.076   3.786   3.345  0.6490  1.4268 -0.6980
  242CHL     CL 1332   0.220   3.316   0.652 -0.2079  0.5357 -0.1388
  242CHL      C 1333   0.194   3.363   0.824 -0.3218  0.1071  0.4002
  242CHL    CL1 1334   0.337   3.467   0.870  0.1698 -0.3304 -0.0605
  242CHL    CL2 1335   0.036   3.447   0.872 -0.3172  0.0033  0.4028
  242CHL      H 1336   0.207   3.271   0.881  3.0446  0.5700  0.5432
  243CHL     CL 1337   2.146   3.133   3.642  0.2140 -0.4912 -0.1151
  243CHL      C 1338   2.012   3.077   3.531 -0.0657  0.6335  0.7659
  243CHL    CL1 1339   1.875   3.186   3.560  0.4167 -0.0504  0.1050
  243CHL    CL2 1340   2.062   3.069   3.352 -0.3177  0.0483  0.1997
  243CHL      H 1341   1.975   2.976   3.551 -2.5295  1.8079  2.7038
  244CHL     CL 1342   3.706   0.531   0.559  0.1882  0.2103 -0.1762
  244CHL      C 1343   3.794   0.438   0.439 -0.4886  0.0093 -0.0030
  244CHL    CL1 1344   3.815   0.537   0.292  0.6164 -0.1103  0.2817
  244CHL    CL2 1345   3.958   0.390   0.508 -0.0087 -0.3933 -0.0747
  244CHL      H 1346   3.729   0.352   0.420 -0.6809  0.1007  0.2375
  245CHL     CL 1347   0.700   3.613   3.260  0.2319 -0.0471 -0.3391
  245CHL      C 1348   0.696   3.587   3.439  0.0122 -0.1437 -0.1864
  245CHL    CL1 1349   0.517   3.604   3.487  0.3946  0.1260  0.2897
  245CHL    CL2 1350   0.756   3.425   3.462  0.4194  0.0566 -0.5290
  245CHL      H 1351   0.754   3.665   3.489 -0.7847  1.2066 -1.2948
  246CHL     CL 1352   0.489   2.120   0.237  0.3768  0.1176  0.0768
  246CHL      C 1353   0.431   2.293   0.216  0.6521  0.6537 -0.0737
  246CHL    CL1 1354   0.422   2.369   0.381  0.4803 -0.1944  0.2933
  246CHL    CL2 1355   0.558   2.382   0.120  0.0165 -0.4471  0.1168
  246CHL      H 1356   0.340   2.293   0.154  0.1491  0.7274  0.6430
  247CHL     CL 1357   1.662   0.826   3.108 -0.1147 -0.0787  0.4401
  247CHL      C 1358   1.563   0.968   3.063 -0.6766 -1.0063  0.5598
  247CHL    CL1 1359   1.434   0.919   2.956 -0.1579  0.0705  0.5477
  247CHL    CL2 1360   1.485   1.051   3.204 -0.2910  0.0734 -0.1743
  247CHL      H 1361   1.631   1.038   3.014 -0.1236 -1.0595  1.2255
  248CHL     CL 1362   3.156   1.975   0.975 -0.6345 -0.0460  0.1500
  248CHL      C 1363   3.111   1.824   1.068  0.3303  0.4186 -0.8290
  248CHL    CL1 1364   3.169   1.847   1.231 -0.1372 -0.2867  0.1690
  248CHL    CL2 1365   2.936   1.792   1.071 -0.2413 -0.1271 -0.3372
  248CHL      H 1366   3.154   1.733   1.026 -1.5325 -1.0377  0.2644
  249CHL     CL 1367   0.902   1.469   3.167  0.4683  0.0418 -0.0260
  249CHL      C 1368   1.023   1.583   3.124 -0.8062 -0.0074  0.0013
  249CHL    CL1 1369   1.098   1.502   2.979  0.0964 -0.0876 -0.0003
  249CHL    CL2 1370   0.958   1.744   3.064 -0.1752 -0.2734 -0.7300
  249CHL      H 1371   1.107   1.596   3.193 -0.3714  1.1731 -0.7161
  250CHL     CL 1372   1.707   2.552   0.633 -0.1569 -0.2806 -0.5266
  250CHL      C 1373   1.581   2.569   0.512  0.0210 -0.1082  0.3051
  250CHL    CL1 1374   1.426   2.625   0.596 -0.1747 -0.2385 -0.5348
  250CHL    CL2 1375   1.618   2.683   0.378 -0.4544 -0.1704  0.6053
  250CHL      H 1376   1.565   2.470   0.466 -0.3483 -1.2507  2.7544
  251CHL     CL 1377   2.848   2.095   2.833  0.3956 -0.4728  0.0753
  251CHL      C 1378   2.985   1.986   2.849 -0.7792  0.3555 -0.3710
  251CHL    CL1 1379   3.013   1.935   3.025 -0.0427  0.0334  0.1827
  251CHL    CL2 1380   2.943   1.839   2.758  0.2930  0.0768  0.3252
  251CHL      H 1381   3.072   2.043   2.815 -0.0028  0.0732  1.1099
  252CHL     CL 1382   1.167   0.204   3.427  0.0975  0.5644 -0.3225
  252CHL      C 1383   1.290   0.103   3.361  0.0035  0.0257  0.5992
  252CHL    CL1 1384   1.270  -0.071   3.387 -0.0204  0.4350  0.1695
  252CHL    CL2 1385   1.312   0.128   3.189  0.3071 -0.2351 -0.0219
  252CHL      H 1386   1.386   0.123   3.411 -0.3293 -2.6599  2.5566
  253CHL     CL 1387   3.737   1.938   3.763 -0.0887  0.1741 -0.1112
  253CHL      C 1388   3.619   1.823   3.830 -0.0899 -0.1091  0.0142
  253CHL    CL1 1389   3.502   1.898   3.945 -0.2837 -0.0656  0.3671
  253CHL    CL2 1390   3.524   1.758   3.686 -0.0420  0.4057 -0.0963
  253CHL      H 1391   3.674   1.741   3.875 -1.0793 -1.3165 -0.8855
  254CHL     CL 1392   0.382   1.686   0.234  0.3661 -0.0897  0.0338
  254CHL      C 1393   0.301   1.737   0.079 -0.1028  1.0395  0.5078
  254CHL    CL1 1394   0.129   1.677   0.092  0.3944 -0.1660 -0.1657
  254CHL    CL2 1395   0.294   1.911   0.059  0.0192 -0.1719  0.5251
  254CHL      H 1396   0.349   1.692  -0.008 -1.6581 -0.1206  0.2126
  255CHL     CL 1397   0.135   3.330   3.406  0.3792  0.5698  0.3403
  255CHL      C 1398   0.293   3.261   3.443  0.4987 -0.8416 -0.6153
  255CHL    CL1 1399   0.323   3.264   3.620  0.1119 -0.3002 -0.4190
  255CHL    CL2 1400   0.296   3.096   3.391  0.2471  0.1655 -0.1367
  255CHL      H 1401   0.371   3.316   3.390  0.6688 -0.9519 -0.4785
  256CHL     CL 1402   3.105   0.542   1.232 -0.3233 -0.5551  0.4807
  256CHL      C 1403   3.023   0.676   1.323  1.0629 -0.0328  0.0164
  256CHL    CL1 1404   2.957   0.607   1.474 -0.1856  0.2398 -0.5498
  256CHL    CL2 1405   3.127   0.808   1.376  0.1764 -0.3424 -0.1832
  256CHL      H 1406   2.934   0.704   1.265 -0.5082 -3.1180  0.7021
  257CHL     CL 1407   2.652   3.572   3.809  0.0613  0.2751 -0.4206
  257CHL      C 1408   2.798   3.482   3.752  0.1790 -0.2831 -0.0909
  257CHL    CL1 1409   2.760   3.308   3.695 -0.2007 -0.2358  0.0506
  257CHL    CL2 1410   2.867   3.577   3.609  0.4137 -0.1936 -0.1897
  257CHL      H 1411   2.871   3.484   3.834  2.2254 -0.1415 -1.8145
  258CHL     CL 1412   3.609   0.073   1.303  0.1054  0.2597  0.4102
  258CHL      C 1413   3.513   0.037   1.161 -0.1189 -0.0324  0.2020
  258CHL    CL1 1414   3.611   0.057   1.012 -0.1338 -0.1000 -0.3133
  258CHL    CL2 1415   3.452  -0.127   1.169 -0.1230 -0.2570  0.2234
  258CHL      H 1416   3.432   0.112   1.159  1.5063  1.8917  1.9744
  259CHL     CL 1417   2.135   1.261   0.133  0.1247  0.0994 -0.1217
  259CHL      C 1418   2.211   1.207   0.293 -0.3284 -0.4514  0.0657
  259CHL    CL1 1419   2.182   1.355   0.392  0.1234 -0.2646 -0.0867
  259CHL    CL2 1420   2.121   1.065   0.351 -0.1542  0.1779 -0.2895
  259CHL      H 1421   2.319   1.194   0.280 -0.2831  1.2118 -1.6451
  260CHL     CL 1422   0.181   0.274   1.100  0.5717  0.1108 -0.2731
  260CHL      C 1423   0.099   0.240   1.254  0.3022 -0.8546  0.6920
  260CHL    CL1 1424   0.169   0.089   1.324  0.0217  0.3198  0.4995
  260CHL    CL2 1425   0.144   0.371   1.368 -0.5579  0.2526 -0.2055
  260CHL      H 1426  -0.008   0.223   1.239  0.0835  0.0728  1.1260
  261CHL     CL 1427   1.153   1.714   3.436 -0.1200 -0.0198 -0.0440
  261CHL      C 1428   1.309   1.756   3.512 -0.2206  0.5831  0.0603
  261CHL    CL1 1429   1.273   1.873   3.650 -0.2731 -0.0933  0.3094
  261CHL    CL2 1430   1.382   1.608   3.562 -0.2107 -0.2275  0.0639
  261CHL      H 1431   1.378   1.795   3.437 -0.5776 -2.3714 -1.9630
  262CHL     CL 1432   3.092   3.208   2.424 -0.1182  0.6251  0.0859
  262CHL      C 1433   3.025   3.319   2.306 -0.3415 -0.4797  0.9113
  262CHL    CL1 1434   3.128   3.308   2.155 -0.3934  0.0773 -0.6654
  262CHL    CL2 1435   2.858   3.268   2.274 -0.0741 -0.2039  0.2734
  262CHL      H 1436   3.025   3.414   2.361 -0.0413 -0.4670  0.8920
  263CHL     CL 1437   1.724   1.336   0.985 -0.4947 -0.3486 -0.0088
  263CHL      C 1438   1.833   1.200   0.962  0.4413 -0.6217 -0.0854
  263CHL    CL1 1439   1.754   1.043   0.921 -0.0564 -0.1345  0.1412
  263CHL    CL2 1440   1.946   1.247   0.819  0.0344  0.4703 -0.1354
  263CHL      H 1441   1.895   1.182   1.051  0.9004 -1.8888 -0.6344
  264CHL     CL 1442   2.212   0.818   1.804  0.3069 -0.0322  0.1159
  264CHL      C 1443   2.147   0.748   1.957 -0.0035  0.6060  0.2322
  264CHL    CL1 1444   2.256   0.780   2.103  0.0925 -0.1361  0.4482
  264CHL    CL2 1445   1.979   0.810   1.990 -0.0094  0.1691 -0.1635
  264CHL      H 1446   2.154   0.639   1.945  0.2678  0.7042 -0.5983
  265CHL     CL 1447   1.130   2.726   1.810  0.1919  0.7816 -0.0951
  265CHL      C 1448   0.993   2.600   1.810  0.2267 -0.4307 -0.9926
  265CHL    CL1 1449   0.879   2.637   1.664 -0.1406  0.0064  0.7217
  265CHL    CL2 1450   1.061   2.434   1.805  0.0426 -0.0803  0.2624
  265CHL      H 1451   0.939   2.613   1.905 -0.0656  0.8600 -1.3075
  266CHL     CL 1452   0.289   2.717   1.029 -0.1095 -0.0118 -0.3669
  266CHL      C 1453   0.194   2.652   1.175 -0.4708 -0.0547  0.5478
  266CHL    CL1 1454   0.305   2.538   1.260 -0.0518 -0.5982  0.3778
  266CHL    CL2 1455   0.143   2.787   1.281 -0.3122  0.0593 -0.1448
  266CHL      H 1456   0.098   2.605   1.146 -0.6334  1.8630 -2.5281
  267CHL     CL 1457   1.616   2.040   1.415 -0.0727  0.1821  0.0609
  267CHL      C 1458   1.591   2.107   1.251 -0.9073 -0.6431  0.1024
  267CHL    CL1 1459   1.408   2.109   1.219  0.1464 -0.0484 -0.4534
  267CHL    CL2 1460   1.665   2.272   1.251  0.3002 -0.2625  0.1538
  267CHL      H 1461   1.644   2.046   1.177 -0.2277  1.1811 -0.9819
  268CHL     CL 1462   3.487   2.579   2.334 -0.1006  0.0249 -0.4262
  268CHL      C 1463   3.587   2.509   2.473  0.7717  0.5728 -0.3932
  268CHL    CL1 1464   3.568   2.339   2.464 -0.4202 -0.3113  0.0274
  268CHL    CL2 1465   3.767   2.557   2.467  0.0478  0.2283 -0.0535
  268CHL      H 1466   3.550   2.541   2.571 -2.2392 -1.0262 -0.8774
  269CHL     CL 1467   2.353   1.838   1.553 -0.1211 -0.3530 -0.6083
  269CHL      C 1468   2.265   1.718   1.643 -0.0981  0.1473  0.8137
  269CHL    CL1 1469   2.232   1.783   1.813  0.2469 -0.4219  0.1005
  269CHL    CL2 1470   2.105   1.665   1.582  0.4583 -0.3599 -0.3154
  269CHL      H 1471   2.330   1.629   1.646  2.0113  1.5882  0.3405
  270CHL     CL 1472   0.328   1.335   0.216  0.1084 -0.0941  0.0006
  270CHL      C 1473   0.332   1.166   0.162 -0.0919  0.5421  0.7015
  270CHL    CL1 1474   0.465   1.151   0.043  0.0287  0.1439  0.2760
  270CHL    CL2 1475   0.377   1.056   0.294 -0.1881  0.0352  0.2555
  270CHL      H 1476   0.236   1.142   0.114 -0.4670  3.1607  0.0043
  271CHL     CL 1477   0.593   1.880   1.997 -0.3501 -0.0095 -0.0339
  271CHL      C 1478   0.418   1.860   2.051  0.2330 -0.8676 -0.4688
  271CHL    CL1 1479   0.381   1.692   2.096  0.2112  0.0987  0.0707
  271CHL    CL2 1480   0.381   1.970   2.196 -0.2363 -0.3770 -0.0515
  271CHL      H 1481   0.348   1.891   1.973  0.8460 -0.9836 -1.0712
  272CHL     CL 1482   2.399   0.536   3.633  0.0189 -0.1624 -0.7950
  272CHL      C 1483   2.493   0.383   3.616  0.0211  0.3205  0.2326
  272CHL    CL1 1484   2.395   0.236   3.563 -0.2714  0.0220 -0.2080
  272CHL    CL2 1485   2.618   0.400   3.487  0.3546  0.1118 -0.1495
  272CHL      H 1486   2.543   0.369   3.712 -2.4972  1.4918  1.8306
  273CHL     CL 1487   0.963   0.598   3.233  0.0794  0.5128 -0.3589
  273CHL      C 1488   0.916   0.640   3.407 -0.6860 -0.4430 -0.3202
  273CHL    CL1 1489   0.755   0.706   3.409 -0.0032  0.1117 -0.3290
  273CHL    CL2 1490   0.918   0.487   3.504  0.0726  0.2604  0.4087
  273CHL      H 1491   0.989   0.710   3.449 -1.1315  1.0152 -1.8618
  274CHL     CL 1492   0.572   2.416   1.427 -0.2311  0.0817 -0.0588
  274CHL      C 1493   0.656   2.263   1.388  0.1381  0.0756  0.4743
  274CHL    CL1 1494   0.556   2.186   1.262 -0.1630 -0.0163 -0.2874
  274CHL    CL2 1495   0.818   2.294   1.338 -0.0888 -0.0914 -0.0614
  274CHL      H 1496   0.654   2.197   1.475 -0.2814 -1.0031 -0.3387
  275CHL     CL 1497   0.639   2.600   2.742  0.0399  0.2129 -0.0181
  275CHL      C 1498   0.822   2.614   2.715  0.6360  0.3526  0.2991
  275CHL    CL1 1499   0.871   2.786   2.692 -0.3746 -0.1740  0.2076
  275CHL    CL2 1500   0.905   2.547   2.856  0.1088 -0.1513 -0.2541
  275CHL      H 1501   0.845   2.563   2.621 -0.7131 -0.3573  0.3264
  276CHL     CL 1502   3.464   1.681   0.877 -0.5133 -0.1453  0.4312
  276CHL      C 1503   3.544   1.841   0.830 -0.8891 -0.1058  0.7111
  276CHL    CL1 1504   3.484   1.896   0.672  0.2560 -0.6237 -0.1839
  276CHL    CL2 1505   3.519   1.957   0.949 -0.3989 -0.2989 -0.2713
  276CHL      H 1506   3.651   1.820   0.819 -0.0232  1.8814  4.1168
  277CHL     CL 1507   1.471   0.940   1.256  0.1956 -0.1707 -0.1589
  277CHL      C 1508   1.406   1.106   1.279  0.1824  0.1341 -0.6907
  277CHL    CL1 1509   1.364   1.147   1.454  0.1269 -0.1046 -0.1015
  277CHL    CL2 1510   1.525   1.220   1.228 -0.0450 -0.4118  0.3627
  277CHL      H 1511   1.308   1.122   1.232 -0.5503 -0.6588  0.5005
  278CHL     CL 1512   1.887   1.396   3.299  0.0484  0.2704  0.1192
  278CHL      C 1513   1.737   1.393   3.198 -0.1477  0.6464  0.0913
  278CHL    CL1 1514   1.648   1.531   3.238  0.4121  0.0266 -0.0146
  278CHL    CL2 1515   1.791   1.386   3.031 -0.1047  0.5123  0.0020
  278CHL      H 1516   1.673   1.306   3.220 -1.1423  1.5798  1.0654
  279CHL     CL 1517   2.712   3.373   3.211  0.4424 -0.0832  0.0114
  279CHL      C 1518   2.833   3.349   3.337  1.2397  0.3874 -0.3681
  279CHL    CL1 1519   2.863   3.177   3.383 -0.0125  0.2451  0.0708
  279CHL    CL2 1520   3.001   3.413   3.281 -0.3632 -0.1015 -0.3375
  279CHL      H 1521   2.789   3.393   3.427  0.4901  0.5595 -0.8144
  280CHL     CL 1522   1.883   3.631   3.514 -0.1594 -0.1172  0.1992
  280CHL      C 1523   2.040   3.651   3.605 -0.7953 -0.3761 -0.0280
  280CHL    CL1 1524   2.117   3.493   3.648  0.1060  0.1849 -0.5402
  280CHL    CL2 1525   2.158   3.748   3.515 -0.1920  0.3377  0.2478
  280CHL      H 1526   2.013   3.704   3.697 -1.1716 -0.8519  0.1387
  281CHL     CL 1527   0.586   2.881   1.236 -0.1939  0.0173  0.4069
  281CHL      C 1528   0.558   3.048   1.177  0.0803 -0.2517  0.4338
  281CHL    CL1 1529   0.453   3.062   1.036  0.6310 -0.3519 -0.3726
  281CHL    CL2 1530   0.487   3.138   1.320  0.1562  0.0963  0.0805
  281CHL      H 1531   0.651   3.099   1.151  1.6893 -2.3997  1.6129
  282CHL     CL 1532   0.550   3.491   0.126 -0.1224  0.2491 -0.2681
  282CHL      C 1533   0.550   3.581   0.288  0.0773  0.2212 -0.0662
  282CHL    CL1 1534   0.395   3.546   0.377  0.1014  0.0981 -0.0695
  282CHL    CL2 1535   0.690   3.534   0.400  0.1070 -0.1765 -0.4451
  282CHL      H 1536   0.572   3.687   0.270  2.2534 -0.0306  0.8535
  283CHL     CL 1537   0.372   2.556   2.974  0.0877 -0.2866  0.0547
  283CHL      C 1538   0.235   2.662   2.926 -0.5350  0.7037 -0.0191
  283CHL    CL1 1539   0.090   2.559   2.887 -0.0789 -0.1870  0.0861
  283CHL    CL2 1540   0.193   2.778   3.060  0.3836 -0.0329  0.1010
  283CHL      H 1541   0.268   2.704   2.831 -0.2000  0.0555 -0.1940
  284CHL     CL 1542   3.725   3.472   1.689 -0.1887 -0.1190  0.2358
  284CHL      C 1543   3.737   3.612   1.564 -0.1650  0.6951 -0.6545
  284CHL    CL1 1544   3.622   3.742   1.624 -0.1148  0.1604  0.1042
  284CHL    CL2 1545   3.917   3.664   1.565  0.1040 -0.1416  0.3315
  284CHL      H 1546   3.711   3.574   1.464 -0.1200  0.3886 -0.5518
  285CHL     CL 1547   0.772   1.947   2.731 -0.0695 -0.2956 -0.3226
  285CHL      C 1548   0.605   1.905   2.794  0.2546  0.2192  0.6239
  285CHL    CL1 1549   0.520   1.802   2.670  0.2210  0.4978 -0.2564
  285CHL    CL2 1550   0.599   1.827   2.954 -0.2436 -0.3447 -0.1231
  285CHL      H 1551   0.549   1.999   2.803 -0.4558 -0.3153  2.3036
  286CHL     CL 1552   3.161   0.071   1.188  0.3059  0.0130 -0.3820
  286CHL      C 1553   3.108  -0.091   1.130 -0.4771 -0.0075  0.0285
  286CHL    CL1 1554   2.931  -0.091   1.099  0.4590 -0.2289 -0.0609
  286CHL    CL2 1555   3.189  -0.153   0.978 -0.0013  0.3867 -0.0678
  286CHL      H 1556   3.127  -0.165   1.209 -3.3635 -0.0051  0.8479
  287CHL     CL 1557   3.127   2.785   1.564  0.2035  0.2194  0.3776
  287CHL      C 1558   3.185   2.614   1.589 -0.9052 -0.3565  0.3297
  287CHL    CL1 1559   3.192   2.591   1.762 -0.2907 -0.2194  0.0374
  287CHL    CL2 1560   3.082   2.489   1.518  0.1373  0.1619  0.1965
  287CHL      H 1561   3.285   2.615   1.546 -0.3033 -0.6444  1.6570
  288CHL     CL 1562   2.124   2.428   1.561 -0.1159 -0.1094 -0.1888
  288CHL      C 1563   2.170   2.321   1.427  0.3541 -0.0047 -0.0804
  288CHL    CL1 1564   2.016   2.259   1.362  0.0676 -0.0387  0.0223
  288CHL    CL2 1565   2.256   2.419   1.305 -0.2017  0.3502  0.0340
  288CHL      H 1566   2.241   2.247   1.464  0.9423 -0.4373 -1.9808
  289CHL     CL 1567   2.600   1.966   3.777 -0.0551  0.1443 -0.0684
  289CHL      C 1568   2.569   2.138   3.728 -0.0632 -0.4556  0.4011
  289CHL    CL1 1569   2.443   2.204   3.836 -0.1456  0.5353 -0.2633
  289CHL    CL2 1570   2.717   2.241   3.750 -0.0615 -0.1258 -0.3404
  289CHL      H 1571   2.538   2.130   3.624 -0.6602 -2.0048  0.6640
  290CHL     CL 1572   3.202   3.177   1.447  0.1733 -0.1827 -0.4548
  290CHL      C 1573   3.344   3.284   1.428  0.3199 -0.4658 -0.4830
  290CHL    CL1 1574   3.372   3.345   1.264 -0.0245  0.1778  0.0312
  290CHL    CL2 1575   3.316   3.428   1.528 -0.1275 -0.1769 -0.3288
  290CHL      H 1576   3.438   3.242   1.465  1.2211  2.1057  0.3608
  291CHL     CL 1577   0.928   3.645   2.097 -0.0820  0.4832 -0.5405
  291CHL      C 1578   1.019   3.667   2.255 -0.2045 -0.6469  0.2053
  291CHL    CL1 1579   0.902   3.709   2.379 -0.1085  0.4138 -0.3779
  291CHL    CL2 1580   1.120   3.522   2.300 -0.1742  0.2799 -0.3286
  291CHL      H 1581   1.086   3.752   2.237  0.1824 -1.1745 -1.0023
  292CHL     CL 1582   0.724   0.308   0.463 -0.0156 -0.2398 -0.1450
  292CHL      C 1583   0.600   0.187   0.414  0.7474  0.0433 -0.5826
  292CHL    CL1 1584   0.616   0.137   0.248  0.0332 -0.1119  0.0890
  292CHL    CL2 1585   0.625   0.047   0.531  0.0881 -0.1144  0.3811
  292CHL      H 1586   0.502   0.232   0.429  1.2641  1.1450 -0.4274
  293CHL     CL 1587   0.993   0.965   0.376 -0.1661  0.0602  0.1687
  293CHL      C 1588   0.996   0.813   0.282  0.3278  0.2547 -0.5551
  293CHL    CL1 1589   0.958   0.851   0.110 -0.2648 -0.2416 -0.1963
  293CHL    CL2 1590   1.145   0.732   0.306  0.0542 -0.1483  0.3332
  293CHL      H 1591   0.913   0.753   0.322  1.1299 -0.1608  0.5352
  294CHL     CL 1592   0.027   3.227   3.799 -0.1693  0.1992 -0.4482
  294CHL      C 1593   0.114   3.264   3.944 -0.4030 -0.3924  0.3772
  294CHL    CL1 1594   0.141   3.450   3.936 -0.3712 -0.4256 -0.4524
  294CHL    CL2 1595   0.059   3.212   4.110  0.0993  0.2105 -0.0530
  294CHL      H 1596   0.211   3.220   3.920  0.6212  1.4854  0.9314
  295CHL     CL 1597   2.556   1.600   2.592 -0.5178  0.2523 -0.2285
  295CHL      C 1598   2.604   1.661   2.432 -0.0425 -0.1745  0.5851
  295CHL    CL1 1599   2.470   1.738   2.341 -0.0385 -0.3154  0.3364
  295CHL    CL2 1600   2.743   1.788   2.448 -0.0277 -0.0316  0.4632
  295CHL      H 1601   2.644   1.579   2.371  1.0425  0.8528 -0.1227
  296CHL     CL 1602   3.332   0.895   1.690 -0.1106  0.2805 -0.3955
  296CHL      C 1603   3.453   0.966   1.576  0.3050  0.2384 -0.7680
  296CHL    CL1 1604   3.603   1.003   1.657  0.0647 -0.3992 -0.0097
  296CHL    CL2 1605   3.461   0.869   1.428  0.0424  0.2028 -0.4872
  296CHL      H 1606   3.409   1.060   1.541  1.7951  1.3078  0.1568
  297CHL     CL 1607   0.946   2.630   0.688  0.1141 -0.1257 -0.0639
  297CHL      C 1608   1.010   2.784   0.602 -0.2738 -0.6021  0.6946
  297CHL    CL1 1609   0.880   2.896   0.528 -0.1703  0.0208 -0.0097
  297CHL    CL2 1610   1.098   2.886   0.718 -0.0727 -0.1502 -0.2197
  297CHL      H 1611   1.071   2.757   0.516 -1.6296 -3.4007  0.5077
  298CHL     CL 1612   2.434   0.419   2.201 -0.2730  0.3439 -0.3717
  298CHL      C 1613   2.562   0.533   2.132 -0.6976  0.1435  0.8408
  298CHL    CL1 1614   2.535   0.550   1.950 -0.2224 -0.1072  0.1623
  298CHL    CL2 1615   2.563   0.694   2.200  0.0843 -0.0122 -0.5217
  298CHL      H 1616   2.657   0.487   2.164 -1.3033 -1.1034  0.9105
  299CHL     CL 1617   2.943   0.007   1.874 -0.1641  0.0652  0.2911
  299CHL      C 1618   2.959  -0.159   1.933  0.0794 -0.6679 -0.2299
  299CHL    CL1 1619   2.808  -0.245   1.881 -0.1290 -0.3127 -0.3864
  299CHL    CL2 1620   3.098  -0.233   1.852  0.0881 -0.2349 -0.0720
  299CHL      H 1621   2.974  -0.156   2.042  1.0274  1.5997 -0.3623
  300CHL     CL 1622   2.798   2.532   3.275 -0.4974 -0.3917  0.2840
  300CHL      C 1623   2.681   2.609   3.395  0.6667 -0.2047 -0.0434
  300CHL    CL1 1624   2.667   2.497   3.541  0.0245 -0.2259 -0.0251
  300CHL    CL2 1625   2.743   2.773   3.433  0.2502 -0.0365  0.2387
  300CHL      H 1626   2.586   2.613   3.339  1.3435 -3.1368 -1.5766
  301CHL     CL 1627   1.040   3.098   2.292  0.5341  0.6151 -0.2061
  301CHL      C 1628   1.208   3.053   2.331 -0.5925 -0.9439 -0.3253
  301CHL    CL1 1629   1.315   3.197   2.349  0.2729 -0.1828  0.0750
  301CHL    CL2 1630   1.196   2.969   2.493  0.1115 -0.0744  0.0219
  301CHL      H 1631   1.246   2.983   2.255 -1.0908 -0.3637 -1.1195
  302CHL     CL 1632   2.504   3.824   1.857 -0.1888 -0.1447  0.1235
  302CHL      C 1633   2.447   3.655   1.818 -0.0066  0.2560 -0.4319
  302CHL    CL1 1634   2.310   3.605   1.917 -0.0867 -0.0387 -0.3122
  302CHL    CL2 1635   2.406   3.656   1.651  0.2329 -0.2669 -0.5578
  302CHL      H 1636   2.521   3.576   1.833 -0.2848 -0.0999 -0.9007
  303CHL     CL 1637   0.588   0.212   1.406 -0.1786  0.0389 -0.4295
  303CHL      C 1638   0.608   0.076   1.527 -0.6383  0.3455 -0.6141
  303CHL    CL1 1639   0.459   0.032   1.619  0.1795 -0.3524  0.1791
  303CHL    CL2 1640   0.673  -0.066   1.441  0.3166 -0.0047 -0.0857
  303CHL      H 1641   0.684   0.110   1.598 -1.3585 -0.0226  0.3552
  304CHL     CL 1642   3.298   2.148   2.686 -0.1924  0.0092  0.0875
  304CHL      C 1643   3.446   2.133   2.765  0.7234 -0.2544 -0.5347
  304CHL    CL1 1644   3.515   2.290   2.816  0.3587 -0.2186 -0.0192
  304CHL    CL2 1645   3.430   2.018   2.904 -0.0251 -0.0868 -0.0770
  304CHL      H 1646   3.517   2.091   2.694 -1.9312  0.0598 -3.5955
  305CHL     CL 1647   1.716   3.489   1.484 -0.1192  0.0981  0.2865
  305CHL      C 1648   1.647   3.383   1.349  0.1303 -0.0008 -0.2564
  305CHL    CL1 1649   1.770   3.306   1.246  0.1422 -0.0633 -0.3605
  305CHL    CL2 1650   1.540   3.258   1.425 -0.1817 -0.1826  0.2752
  305CHL      H 1651   1.588   3.450   1.286 -0.2477  1.1994  1.3110
  306CHL     CL 1652   0.622   1.806   1.033 -0.0431 -0.4699  0.0425
  306CHL      C 1653   0.775   1.741   0.964 -0.5736  0.1079  0.8401
  306CHL    CL1 1654   0.871   1.645   1.084 -0.3609 -0.2082 -0.1668
  306CHL    CL2 1655   0.734   1.632   0.827  0.1632  0.0345 -0.2746
  306CHL      H 1656   0.837   1.825   0.931 -2.6097  1.9411  1.4856
  307CHL     CL 1657   1.044   1.345   3.498  0.4252  0.3537 -0.1432
  307CHL      C 1658   1.021   1.242   3.642 -0.3835 -0.0078 -0.3453
  307CHL    CL1 1659   1.077   1.070   3.596 -0.0178 -0.0980  0.0636
  307CHL    CL2 1660   1.120   1.291   3.782 -0.0796  0.0952  0.1227
  307CHL      H 1661   0.917   1.243   3.676 -0.4880 -0.3432 -0.6564
  308CHL     CL 1662   3.008   0.948   2.564 -0.0305 -0.0465  0.4910
  308CHL      C 1663   3.009   0.850   2.414  0.0089  0.3484  0.2639
  308CHL    CL1 1664   2.950   0.689   2.465  0.8456 -0.4735 -0.2492
  308CHL    CL2 1665   2.905   0.926   2.289  0.2841  0.2623 -0.3492
  308CHL      H 1666   3.110   0.825   2.380  0.9003  0.9063  2.3081
  309CHL     CL 1667   0.137   2.202   3.624  0.0317  0.0625 -0.1627
  309CHL      C 1668   0.280   2.312   3.614 -0.4936 -0.2613 -0.1593
  309CHL    CL1 1669   0.238   2.467   3.696 -0.3436 -0.3013  0.2153
  309CHL    CL2 1670   0.426   2.246   3.679  0.0974 -0.1028 -0.2434
  309CHL      H 1671   0.293   2.346   3.511  2.8066  0.0007  0.2237
  310CHL     CL 1672   2.190   0.013   0.337  0.7184 -0.0308 -0.0796
  310CHL      C 1673   2.282   0.077   0.186 -0.0548 -0.1588 -0.0020
  310CHL    CL1 1674   2.427   0.164   0.242 -0.1697  0.3769  0.1540
  310CHL    CL2 1675   2.320  -0.046   0.060 -0.0929  0.2102 -0.0119
  310CHL      H 1676   2.228   0.159   0.138 -0.0821 -0.2391 -0.1069
  311CHL     CL 1677   3.542   2.000   3.337  0.0478  0.4449 -0.2827
  311CHL      C 1678   3.645   2.141   3.267  0.1701 -0.9230 -0.2926
  311CHL    CL1 1679   3.552   2.248   3.149  0.2984 -0.0245  0.1694
  311CHL    CL2 1680   3.719   2.242   3.400 -0.2004 -0.0178 -0.1693
  311CHL      H 1681   3.724   2.099   3.205  1.3910  0.4714  0.2484
  312CHL     CL 1682   1.851   1.704   0.649  0.0967  0.0343  0.2333
  312CHL      C 1683   1.798   1.616   0.500  0.9327 -0.5904 -0.4154
  312CHL    CL1 1684   1.651   1.700   0.432  0.1817 -0.0709 -0.2186
  312CHL    CL2 1685   1.933   1.625   0.384  0.0446 -0.0497 -0.3408
  312CHL      H 1686   1.784   1.511   0.528 -0.1433 -0.4360 -0.3255
  313CHL     CL 1687   0.662   2.390   1.855 -0.1897 -0.2545  0.1835
  313CHL      C 1688   0.673   2.228   1.785  0.1510  0.2571 -0.3293
  313CHL    CL1 1689   0.530   2.168   1.704 -0.4059  0.2284  0.4173
  313CHL    CL2 1690   0.812   2.214   1.676 -0.0442  0.0966 -0.1401
  313CHL      H 1691   0.696   2.152   1.861 -0.8975 -0.2884 -0.5339
  314CHL     CL 1692   1.143   3.101   1.936  0.2843 -0.1080 -0.1520
  314CHL      C 1693   1.302   3.168   1.872  0.3627 -0.2383 -0.2174
  314CHL    CL1 1694   1.417   3.225   2.004  0.3630 -0.2508  0.2008
  314CHL    CL2 1695   1.375   3.042   1.768  0.0675  0.2478  0.0841
  314CHL      H 1696   1.277   3.251   1.806 -0.4214 -0.8649 -0.7313
  315CHL     CL 1697   3.602   3.446   3.373 -0.2672 -0.3121  0.3123
  315CHL      C 1698   3.455   3.570   3.386 -0.0319 -0.4505 -0.0598
  315CHL    CL1 1699   3.501   3.745   3.378  0.3822  0.0186 -0.4470
  315CHL    CL2 1700   3.338   3.534   3.244 -0.2047  0.1951 -0.2159
  315CHL      H 1701   3.409   3.552   3.484  1.7560 -0.8283  0.7503
  316CHL     CL 1702   3.818   3.786   2.419 -0.3147 -0.1827  0.2422
  316CHL      C 1703   3.841   3.961   2.379 -0.4093  0.1289 -0.2637
  316CHL    CL1 1704   3.943   3.985   2.232  0.0316  0.1236 -0.3267
  316CHL    CL2 1705   3.672   4.030   2.360  0.2655 -0.5554 -0.1242
  316CHL      H 1706   3.892   4.009   2.463 -2.5007  1.1605  0.5032
  317CHL     CL 1707   2.987   0.446   3.637  0.0602 -0.3912 -0.0089
  317CHL      C 1708   3.050   0.606   3.568 -0.8950 -0.1233  0.2399
  317CHL    CL1 1709   3.195   0.584   3.460  0.0034 -0.0163 -0.1871
  317CHL    CL2 1710   2.922   0.697   3.477  0.0734  0.2503 -0.0295
  317CHL      H 1711   3.081   0.672   3.649  0.1446  1.0005 -1.0248
  318CHL     CL 1712   3.727   0.364   0.884  0.6598  0.4890  0.0371
  318CHL      C 1713   3.764   0.538   0.928 -0.4088 -0.1498 -0.0574
  318CHL    CL1 1714   3.779   0.550   1.098 -0.1964  0.0283  0.1913
  318CHL    CL2 1715   3.916   0.592   0.860  0.3907 -0.1205 -0.0834
  318CHL      H 1716   3.694   0.617   0.902  0.6461  0.7326 -0.2975
  319CHL     CL 1717   1.965   3.578   0.139 -0.1200 -0.1692 -0.0524
  319CHL      C 1718   1.921   3.413   0.196 -0.0101 -0.4031 -0.4989
  319CHL    CL1 1719   1.824   3.327   0.070  0.2127  0.2889  0.1469
  319CHL    CL2 1720   2.077   3.330   0.225 -0.0700 -0.0745  0.0586
  319CHL      H 1721   1.859   3.411   0.286 -0.1654 -1.2535 -0.6170
  320CHL     CL 1722   2.919   3.634   2.356 -0.1067 -0.1281  0.1210
  320CHL      C 1723   3.034   3.655   2.496 -0.0045  0.0302  0.4431
  320CHL    CL1 1724   2.962   3.618   2.663  0.1673  0.1528 -0.2034
  320CHL    CL2 1725   3.177   3.555   2.467 -0.3047 -0.0623  0.0409
  320CHL      H 1726   3.064   3.759   2.512 -1.2695  0.0191  3.7024
  321CHL     CL 1727   1.442   1.875   2.326  0.2051 -0.1287  0.0959
  321CHL      C 1728   1.589   1.774   2.275 -0.1863 -0.4747  0.3697
  321CHL    CL1 1729   1.551   1.697   2.117  0.4315 -0.0758  0.0879
  321CHL    CL2 1730   1.710   1.912   2.236  0.2716 -0.3979 -0.0727
  321CHL      H 1731   1.632   1.705   2.349 -3.1016 -2.5944  0.2619
  322CHL     CL 1732   1.459   3.748   1.787  0.3457 -0.0636  0.2255
  322CHL      C 1733   1.306   3.643   1.798  0.1212 -0.3313  0.7065
  322CHL    CL1 1734   1.343   3.478   1.722 -0.1850 -0.0752  0.3660
  322CHL    CL2 1735   1.271   3.605   1.968  0.1339  0.4089  0.1218
  322CHL      H 1736   1.222   3.692   1.748  1.7050  0.5291 -1.2637
  323CHL     CL 1737   2.030   2.743   0.177  0.1823  0.0026  0.2001
  323CHL      C 1738   2.035   2.804   0.007  0.2757  0.5081  0.9418
  323CHL    CL1 1739   2.172   2.743  -0.087  0.3017 -0.1681  0.5232
  323CHL    CL2 1740   1.875   2.751  -0.074  0.0179  0.0393 -0.3890
  323CHL      H 1741   2.041   2.914   0.000 -0.3173  0.5047  0.2003
  324CHL     CL 1742   1.115   0.361   1.583  0.2413  0.2621 -0.0547
  324CHL      C 1743   1.298   0.363   1.588  0.2543 -0.4689  0.4882
  324CHL    CL1 1744   1.347   0.244   1.708 -0.0437 -0.4559 -0.1055
  324CHL    CL2 1745   1.363   0.327   1.424 -0.2034  0.3337  0.1021
  324CHL      H 1746   1.321   0.464   1.625  0.1238 -0.4628  0.5515
  325CHL     CL 1747   2.361   2.302   2.884 -0.3322 -0.2027  0.1224
  325CHL      C 1748   2.449   2.463   2.907  0.5828 -0.5390 -0.1937
  325CHL    CL1 1749   2.473   2.488   3.089  0.2685  0.2491  0.0662
  325CHL    CL2 1750   2.604   2.468   2.819 -0.2856 -0.1468  0.1845
  325CHL      H 1751   2.380   2.537   2.866 -3.1188 -3.1827  0.6500
  326CHL     CL 1752   1.116   0.932   1.601 -0.2420  0.2297  0.3360
  326CHL      C 1753   1.272   0.890   1.675  0.2545 -0.3979 -0.0853
  326CHL    CL1 1754   1.253   0.916   1.852  0.3225 -0.1819 -0.0294
  326CHL    CL2 1755   1.337   0.727   1.644 -0.2120 -0.0701 -0.0386
  326CHL      H 1756   1.344   0.966   1.644  0.9691 -1.3365 -0.7735
  327CHL     CL 1757   0.186   2.188   2.684  0.0703 -0.1680  0.2801
  327CHL      C 1758   0.317   2.311   2.740  0.0129 -0.2058  0.3292
  327CHL    CL1 1759   0.472   2.239   2.761 -0.6491  0.1323 -0.1159
  327CHL    CL2 1760   0.328   2.428   2.607  0.2301  0.2661  0.0015
  327CHL      H 1761   0.285   2.355   2.835 -0.3929 -0.2885  0.2313
  328CHL     CL 1762   3.354   1.672   2.775 -0.2427  0.4966  0.2014
  328CHL      C 1763   3.261   1.523   2.801 -0.3854  0.2595  0.1549
  328CHL    CL1 1764   3.384   1.381   2.809  0.2402  0.6233  0.6548
  328CHL    CL2 1765   3.169   1.528   2.958  0.4253  0.0487  0.3494
  328CHL      H 1766   3.190   1.510   2.718  0.0299 -0.7234 -0.0642
  329CHL     CL 1767   0.999   3.174   3.475  0.0716  0.1057  0.0498
  329CHL      C 1768   1.146   3.271   3.493  0.0604  0.0460 -0.7168
  329CHL    CL1 1769   1.106   3.449   3.469 -0.1024  0.4460  0.7301
  329CHL    CL2 1770   1.212   3.243   3.650 -0.0560  0.2545 -0.0565
  329CHL      H 1771   1.219   3.240   3.418 -0.6395 -0.2440 -1.2850
  330CHL     CL 1772   1.940   3.183   1.918  0.4340  0.1097  0.0728
  330CHL      C 1773   1.862   3.281   1.780 -0.5600 -0.1602  0.2824
  330CHL    CL1 1774   1.675   3.311   1.798 -0.2858 -0.6228 -0.4042
  330CHL    CL2 1775   1.942   3.436   1.768 -0.0490 -0.5150 -0.3957
  330CHL      H 1776   1.883   3.231   1.685  1.1904 -1.0356  1.0674
  331CHL     CL 1777   3.104   0.061   3.485  0.4511 -0.1922 -0.4068
  331CHL      C 1778   3.217   0.041   3.617 -0.1013 -0.1266 -0.0090
  331CHL    CL1 1779   3.204   0.189   3.719  0.0244  0.2073  0.2481
  331CHL    CL2 1780   3.186  -0.114   3.711  0.0787  0.5395  0.2848
  331CHL      H 1781   3.319   0.046   3.578 -0.1628 -1.6532 -0.4225
  332CHL     CL 1782   2.759   0.245   1.432 -0.4097 -0.0210  0.5504
  332CHL      C 1783   2.820   0.201   1.598 -0.0353  0.6223  0.1172
  332CHL    CL1 1784   2.990   0.236   1.602 -0.0002 -0.0842 -0.4226
  332CHL    CL2 1785   2.728   0.303   1.721 -0.0233  0.4803  0.1683
  332CHL      H 1786   2.796   0.097   1.620 -1.4342  0.5988 -1.2885
  333CHL     CL 1787   0.615   3.819   2.019  0.4424  0.0574 -0.0592
  333CHL      C 1788   0.497   3.882   2.154 -0.7543 -0.0693  0.4934
  333CHL    CL1 1789   0.395   4.017   2.084 -0.1901  0.2004 -0.0640
  333CHL    CL2 1790   0.389   3.754   2.229  0.6912  0.1527 -0.1179
  333CHL      H 1791   0.554   3.924   2.238 -0.7476  0.0052  0.4513
  334CHL     CL 1792   1.929   1.652   1.056 -0.1146  0.5149 -0.1794
  334CHL      C 1793   2.010   1.795   1.138 -0.1157  0.1612 -0.1756
  334CHL    CL1 1794   1.897   1.867   1.252 -0.2153 -0.1099 -0.2241
  334CHL    CL2 1795   2.160   1.742   1.229  0.0128 -0.1642  0.2399
  334CHL      H 1796   2.047   1.870   1.067 -2.0197  0.7135 -0.6499
  335CHL     CL 1797   1.206   0.351   0.323 -0.0448 -0.1740 -0.4220
  335CHL      C 1798   1.048   0.345   0.236 -0.9452  0.8660  0.2908
  335CHL    CL1 1799   1.085   0.372   0.071 -0.2968  0.2384  0.1721
  335CHL    CL2 1800   0.969   0.176   0.251  0.1719 -0.0509  0.1678
  335CHL      H 1801   0.982   0.426   0.270 -0.9182  1.1301 -0.2783
  336CHL     CL 1802   0.439   3.259   2.383  0.4237 -0.0589 -0.0172
  336CHL      C 1803   0.393   3.375   2.252 -0.2114  0.7935  0.0749
  336CHL    CL1 1804   0.541   3.424   2.167  0.2071  0.4998 -0.0708
  336CHL    CL2 1805   0.286   3.269   2.147 -0.4032  0.0478  0.3203
  336CHL      H 1806   0.348   3.459   2.306 -0.9684 -0.4893  1.5307
  337CHL     CL 1807   0.884   3.442   0.699  0.0882  0.1806  0.3533
  337CHL      C 1808   0.808   3.279   0.713  0.4884 -0.5718 -0.4966
  337CHL    CL1 1809   0.784   3.203   0.561 -0.4850  0.3280  0.2433
  337CHL    CL2 1810   0.906   3.169   0.825 -0.1047 -0.1142  0.0632
  337CHL      H 1811   0.714   3.300   0.766  1.0967  0.0049  0.3823
  338CHL     CL 1812   1.147   2.855   2.967  0.1208 -0.2377 -0.1803
  338CHL      C 1813   1.207   3.003   3.038  0.2123  0.6311  0.1568
  338CHL    CL1 1814   1.257   2.983   3.209 -0.2250  0.0089  0.1777
  338CHL    CL2 1815   1.338   3.061   2.941  0.2067 -0.4391 -0.4205
  338CHL      H 1816   1.132   3.082   3.033  0.7372  1.0791 -0.9481
  339CHL     CL 1817   3.100   2.272   3.294  0.5091  0.0352 -0.0888
  339CHL      C 1818   3.230   2.197   3.400  0.4814  0.0200  0.4229
  339CHL    CL1 1819   3.365   2.304   3.443  0.4014 -0.1334  0.1200
  339CHL    CL2 1820   3.159   2.144   3.559  0.2634 -0.6182  0.4529
  339CHL      H 1821   3.286   2.118   3.348  1.3686 -0.9085  2.6786
  340CHL     CL 1822   3.053   1.186   1.283  0.3207  0.5484  0.0004
  340CHL      C 1823   3.172   1.125   1.166  0.7963 -0.0088 -0.1362
  340CHL    CL1 1824   3.175   1.248   1.028  0.2338 -0.2069  0.2494
  340CHL    CL2 1825   3.342   1.123   1.240  0.2197  0.0596 -0.2446
  340CHL      H 1826   3.149   1.027   1.123 -0.4373  0.0440  0.3606
  341CHL     CL 1827   1.064   2.235   2.845  0.1226 -0.1544 -0.4737
  341CHL      C 1828   1.137   2.187   2.682 -0.8675  0.2251 -0.2931
  341CHL    CL1 1829   1.027   2.211   2.544 -0.0717  0.0497  0.1458
  341CHL    CL2 1830   1.278   2.291   2.658  0.1799  0.1120 -0.6271
  341CHL      H 1831   1.174   2.084   2.688 -2.0548 -0.2910 -1.3743
  342CHL     CL 1832   0.074   2.465   0.185 -0.4410  0.0423 -0.3421
  342CHL      C 1833  -0.061   2.342   0.212  0.2226 -0.9510  0.1795
  342CHL    CL1 1834  -0.119   2.259   0.065  0.2503  0.4821  0.3088
  342CHL    CL2 1835  -0.000   2.212   0.329  0.0539 -0.1146  0.1882
  342CHL      H 1836  -0.141   2.407   0.250 -1.4351 -1.3794 -2.3533
  343CHL     CL 1837   3.310   1.665   2.368  0.2335  0.1349  0.1673
  343CHL      C 1838   3.233   1.507   2.313  0.4346 -0.1049 -0.7064
  343CHL    CL1 1839   3.266   1.474   2.138 -0.4421  0.3827  0.0680
  343CHL    CL2 1840   3.286   1.366   2.425  0.1896 -0.0115  0.3212
  343CHL      H 1841   3.125   1.526   2.309  0.3873 -0.0489  0.4879
  344CHL     CL 1842   1.662   0.850   2.673 -0.4335  0.2661  0.3443
  344CHL      C 1843   1.641   0.671   2.717 -0.4547 -0.8264 -0.1541
  344CHL    CL1 1844   1.650   0.578   2.562 -0.3587  0.0628  0.7652
  344CHL    CL2 1845   1.765   0.626   2.836 -0.1203  0.0620  0.1737
  344CHL      H 1846   1.544   0.660   2.766  0.1980 -1.7281  0.9931
  345CHL     CL 1847   2.785   2.154   1.400 -0.1110 -0.3596  0.2802
  345CHL      C 1848   2.643   2.047   1.426  0.6945 -0.8810 -0.5480
  345CHL    CL1 1849   2.500   2.142   1.374  0.2893  0.0242 -0.2033
  345CHL    CL2 1850   2.637   1.896   1.341  0.2521  0.0548 -0.3960
  345CHL      H 1851   2.630   2.022   1.531 -0.3389 -1.1173 -0.7201
  346CHL     CL 1852   2.238   3.511   1.391 -0.3195 -0.0632  0.2071
  346CHL      C 1853   2.144   3.639   1.303  0.0323  0.0028  0.1007
  346CHL    CL1 1854   1.984   3.572   1.255 -0.3191  0.0449 -0.0318
  346CHL    CL2 1855   2.125   3.790   1.393 -0.2495  0.1906 -0.5632
  346CHL      H 1856   2.204   3.668   1.216 -0.2848 -0.7244 -0.3678
  347CHL     CL 1857   0.426   0.995   1.842  0.0320 -0.0473  0.1650
  347CHL      C 1858   0.398   0.860   1.947  0.1270  0.6745  0.4311
  347CHL    CL1 1859   0.388   0.710   1.842 -0.0162 -0.3511 -0.0001
  347CHL    CL2 1860   0.538   0.845   2.065  0.0528  0.0775  0.0793
  347CHL      H 1861   0.305   0.887   1.999 -0.3862  0.7821 -0.5122
  348CHL     CL 1862   2.011   1.416   2.035 -0.4233 -0.0873 -0.0012
  348CHL      C 1863   2.079   1.309   1.902  0.2088 -0.7321 -0.1701
  348CHL    CL1 1864   2.213   1.387   1.806 -0.3215  0.1390  0.1779
  348CHL    CL2 1865   2.137   1.156   1.978 -0.2899 -0.0292 -0.4499
  348CHL      H 1866   2.003   1.283   1.827 -0.8229 -0.3279  0.7224
  349CHL     CL 1867   1.789   0.207   1.411  0.2172  0.4679 -0.0969
  349CHL      C 1868   1.728   0.039   1.449  0.0666 -0.4538 -0.3440
  349CHL    CL1 1869   1.747   0.019   1.628 -0.1690 -0.0615  0.0547
  349CHL    CL2 1870   1.554   0.033   1.401  0.1102  0.2711  0.0475
  349CHL      H 1871   1.781  -0.040   1.396 -0.4941 -3.3170  2.9768
  350CHL     CL 1872   3.187   2.566   0.412 -0.4856  0.1634  0.3195
  350CHL      C 1873   3.073   2.704   0.407 -0.2382 -0.2137 -0.0989
  350CHL    CL1 1874   2.909   2.653   0.459 -0.0835  0.1389 -0.0284
  350CHL    CL2 1875   3.129   2.824   0.524 -0.1692 -0.0307  0.3406
  350CHL      H 1876   3.055   2.748   0.309 -0.8009  0.2033  0.1856
  351CHL     CL 1877   2.208   3.649   3.121  0.3416 -0.3441  0.3344
  351CHL      C 1878   2.188   3.505   3.223  0.3517 -1.0004  0.1372
  351CHL    CL1 1879   2.017   3.453   3.215  0.0703 -0.4521  0.0322
  351CHL    CL2 1880   2.302   3.377   3.175 -0.5820 -0.1839  0.1245
  351CHL      H 1881   2.210   3.541   3.324 -2.0273  2.0261 -0.2722
  352CHL     CL 1882   2.340   1.554   2.076  0.0114  0.3037 -0.1650
  352CHL      C 1883   2.367   1.406   2.171 -0.4293  0.4199 -0.0758
  352CHL    CL1 1884   2.541   1.356   2.140 -0.1497 -0.2234 -0.3774
  352CHL    CL2 1885   2.356   1.428   2.353  0.6659 -0.3956  0.2345
  352CHL      H 1886   2.306   1.323   2.134 -0.5635  1.3230 -1.9943
  353CHL     CL 1887   2.499   2.543   0.020  0.1966  0.1115  0.0457
  353CHL      C 1888   2.667   2.527   0.077 -0.3199 -0.4653  0.2310
  353CHL    CL1 1889   2.716   2.694   0.114  0.0237 -0.1929  0.3152
  353CHL    CL2 1890   2.663   2.419   0.218 -0.4730 -0.0833 -0.3526
  353CHL      H 1891   2.724   2.484  -0.006  0.0884  0.4153  0.0356
  354CHL     CL 1892   2.960   3.027   0.242 -0.0595  0.3296  0.1647
  354CHL      C 1893   2.787   3.048   0.291 -0.7272 -0.0890  0.4131
  354CHL    CL1 1894   2.766   2.985   0.460 -0.0750  0.2674  0.1848
  354CHL    CL2 1895   2.724   3.222   0.279 -0.0320 -0.1109 -0.3160
  354CHL      H 1896   2.715   2.990   0.232 -0.2638 -1.3457  1.0485
  355CHL     CL 1897   2.541   2.656   0.992 -0.2748  0.2263  0.3537
  355CHL      C 1898   2.703   2.581   0.959 -0.0295 -0.4393 -0.0940
  355CHL    CL1 1899   2.735   2.436   1.063  0.0468  0.1062  0.2184
  355CHL    CL2 1900   2.715   2.528   0.788 -0.1329  0.2212 -0.1911
  355CHL      H 1901   2.769   2.667   0.972 -0.3753 -0.1233 -0.4061
  356CHL     CL 1902   0.236   0.575   3.396 -0.0440  0.6376  0.4851
  356CHL      C 1903   0.164   0.683   3.272 -0.0786 -0.1509 -0.4830
  356CHL    CL1 1904   0.282   0.799   3.211 -0.0739  0.2738  0.5313
  356CHL    CL2 1905   0.100   0.584   3.139  0.3175 -0.2580  0.1471
  356CHL      H 1906   0.080   0.736   3.318  0.6283 -0.6066  1.4546
  357CHL     CL 1907   0.316   2.105   3.329  0.3686 -0.1313  0.0596
  357CHL      C 1908   0.340   2.232   3.201  0.0451 -0.3041  0.1113
  357CHL    CL1 1909   0.287   2.170   3.045 -0.0665  0.2568  0.0297
  357CHL    CL2 1910   0.236   2.383   3.240 -0.1925 -0.3731 -0.1738
  357CHL      H 1911   0.444   2.260   3.186  0.3370 -1.0578  0.6771
  358CHL     CL 1912   2.689   1.422   0.922 -0.5668 -0.1592 -0.0390
  358CHL      C 1913   2.648   1.316   0.783 -0.1160 -0.3972 -0.0657
  358CHL    CL1 1914   2.770   1.352   0.650  0.4080  0.3206  0.0318
  358CHL    CL2 1915   2.655   1.137   0.815  0.0131 -0.5898 -0.1526
  358CHL      H 1916   2.547   1.331   0.745 -0.1649 -1.4817 -0.4011
  359CHL     CL 1917   2.944   1.208   3.005  0.3523  0.1176  0.2249
  359CHL      C 1918   2.902   1.032   2.969  0.0121  0.3441  0.1962
  359CHL    CL1 1919   2.841   0.944   3.117  0.1711  0.1596 -0.0825
  359CHL    CL2 1920   2.773   1.035   2.845 -0.1668 -0.4505  0.2641
  359CHL      H 1921   2.986   0.977   2.925 -0.8484 -2.0691  1.3857
  360CHL     CL 1922   2.514   0.010   3.181 -0.2126 -0.0621  0.0617
  360CHL      C 1923   2.536   0.001   3.354 -0.6646 -0.8986 -0.0199
  360CHL    CL1 1924   2.524  -0.172   3.418  0.0823 -0.1355 -0.0976
  360CHL    CL2 1925   2.695   0.077   3.395  0.2010  0.1963 -0.0062
  360CHL      H 1926   2.459   0.060   3.406 -0.3291  0.0143 -0.5415
  361CHL     CL 1927   2.623   1.516   3.336 -0.3225  0.0457  0.3559
  361CHL      C 1928   2.520   1.448   3.203  0.4119 -0.0368 -0.4142
  361CHL    CL1 1929   2.429   1.583   3.118 -0.0365  0.0407  0.4564
  361CHL    CL2 1930   2.614   1.347   3.088 -0.2883 -0.2258 -0.1782
  361CHL      H 1931   2.452   1.381   3.257  0.8715  1.3570  2.0166
  362CHL     CL 1932   2.344   2.948   2.254 -0.2383 -0.2353 -0.3483
  362CHL      C 1933   2.454   2.968   2.397  0.7499 -0.4325 -0.6119
  362CHL    CL1 1934   2.634   2.988   2.343  0.2993 -0.2684  0.0181
  362CHL    CL2 1935   2.406   3.129   2.485 -0.5895 -0.0367 -0.2840
  362CHL      H 1936   2.449   2.887   2.470 -0.2108  0.6431  0.5565
  363CHL     CL 1937   0.768   3.596   1.151  0.3466  0.1364  0.5684
  363CHL      C 1938   0.664   3.718   1.073  0.6633  0.5513  0.2389
  363CHL    CL1 1939   0.689   3.703   0.891 -0.5469 -0.3946  0.0774
  363CHL    CL2 1940   0.488   3.699   1.116  0.5767  0.3357 -0.4876
  363CHL      H 1941   0.695   3.820   1.098 -3.4949  1.8946  0.5694
  364CHL     CL 1942   3.128   2.201   0.621  0.1862  0.0237 -0.3193
  364CHL      C 1943   3.048   2.320   0.721 -0.2619 -0.7220 -0.2308
  364CHL    CL1 1944   2.948   2.248   0.854  0.0059  0.2896  0.0470
  364CHL    CL2 1945   3.165   2.424   0.798 -0.2065  0.0642  0.2282
  364CHL      H 1946   2.977   2.380   0.662 -0.3171 -0.6485 -0.0884
  365CHL     CL 1947   0.377   2.933   2.698 -0.1320  0.3500  0.3847
  365CHL      C 1948   0.270   2.909   2.557 -0.1210  0.5139 -0.0699
  365CHL    CL1 1949   0.275   2.748   2.486 -0.3990 -0.0053 -0.3345
  365CHL    CL2 1950   0.097   2.964   2.601 -0.1420  0.1768 -0.0509
  365CHL      H 1951   0.302   2.979   2.478  1.4845 -0.9978 -0.8458
  366CHL     CL 1952   0.560   0.854   0.698  0.3066  0.3559 -0.2468
  366CHL      C 1953   0.531   0.867   0.872 -0.2631 -0.3491 -0.5145
  366CHL    CL1 1954   0.517   1.039   0.933 -0.1389  0.0360  0.2743
  366CHL    CL2 1955   0.372   0.785   0.893 -0.0285  0.2549 -0.2125
  366CHL      H 1956   0.601   0.806   0.930 -0.0715  0.0400 -0.3284
  367CHL     CL 1957   2.509   2.439   1.598 -0.0028  0.1074  0.0686
  367CHL      C 1958   2.681   2.432   1.562  0.3202  1.0355  0.2242
  367CHL    CL1 1959   2.701   2.475   1.391 -0.3538  0.1392  0.2325
  367CHL    CL2 1960   2.775   2.550   1.679  0.2783 -0.0131 -0.0528
  367CHL      H 1961   2.713   2.328   1.579  0.0142  0.9681  0.3813
  368CHL     CL 1962   1.542   2.965   3.583 -0.2896 -0.1059 -0.3670
  368CHL      C 1963   1.520   3.076   3.725 -0.0434  0.0590 -0.7371
  368CHL    CL1 1964   1.643   3.025   3.858 -0.1806  0.0173 -0.4049
  368CHL    CL2 1965   1.553   3.246   3.679 -0.1945  0.0088  0.2924
  368CHL      H 1966   1.419   3.063   3.766 -0.9428  3.5015 -1.5301
  369CHL     CL 1967   3.208   1.361   0.689 -0.3429  0.0844 -0.0208
  369CHL      C 1968   3.335   1.341   0.565  0.2934 -0.8379 -0.6144
  369CHL    CL1 1969   3.330   1.171   0.509 -0.1027  0.4247 -0.3604
  369CHL    CL2 1970   3.307   1.443   0.433 -0.3957  0.0198  0.0922
  369CHL      H 1971   3.431   1.374   0.604  0.1520 -1.2969  0.1380
  370CHL     CL 1972   0.005   3.001   2.213  0.4003 -0.1175  0.1674
  370CHL      C 1973   0.012   2.817   2.184  0.0676  0.0679 -0.3648
  370CHL    CL1 1974  -0.150   2.772   2.121 -0.1255 -0.4095 -0.0035
  370CHL    CL2 1975   0.144   2.762   2.074  0.0499  0.2802  0.0494
  370CHL      H 1976   0.032   2.782   2.286  1.5683  0.7307 -0.3994
  371CHL     CL 1977   0.936   0.133   1.275 -0.0725  0.0497  0.3269
  371CHL      C 1978   1.084   0.079   1.190  0.8505 -0.5350  0.2314
  371CHL    CL1 1979   1.136  -0.067   1.282  0.2675 -0.0225 -0.4537
  371CHL    CL2 1980   1.047   0.037   1.020  0.2055  0.0752  0.2785
  371CHL      H 1981   1.159   0.158   1.194 -1.7111  2.0432  0.5829
  372CHL     CL 1982   3.818   1.183   2.792  0.0403 -0.4501  0.7634
  372CHL      C 1983   3.977   1.118   2.830  0.2977 -0.0983 -0.3332
  372CHL    CL1 1984   4.063   1.222   2.953 -0.0131  0.2385 -0.0049
  372CHL    CL2 1985   3.954   0.949   2.893 -0.0435 -0.0167 -0.2071
  372CHL      H 1986   4.037   1.118   2.739  1.0405 -0.9463  0.1346
  373CHL     CL 1987   0.553   3.028   0.022 -0.0403  0.2502  0.1039
  373CHL      C 1988   0.602   3.159   0.126 -0.1197 -0.7701 -0.3036
  373CHL    CL1 1989   0.514   3.149   0.275 -0.2552  0.0394 -0.0784
  373CHL    CL2 1990   0.779   3.177   0.144  0.2141 -0.5000  0.0449
  373CHL      H 1991   0.565   3.255   0.089 -0.9165  0.0988  2.5346
  374CHL     CL 1992   3.277   0.996   3.602  0.0531 -0.2082 -0.0442
  374CHL      C 1993   3.221   1.148   3.513 -0.4397 -0.8038 -0.5611
  374CHL    CL1 1994   3.349   1.266   3.509  0.1002 -0.0809 -0.0859
  374CHL    CL2 1995   3.181   1.096   3.347  0.1564 -0.0574  0.2658
  374CHL      H 1996   3.128   1.177   3.565 -0.0097 -0.3590 -0.0321
  375CHL     CL 1997   1.150   1.930   1.259 -0.2353  0.1579 -0.3533
  375CHL      C 1998   1.008   1.990   1.354  0.0314  0.5822 -0.2985
  375CHL    CL1 1999   0.866   1.907   1.283 -0.0700  0.1075  0.0214
  375CHL    CL2 2000   1.023   1.970   1.526 -0.5354  0.5179  0.1612
  375CHL      H 2001   1.009   2.096   1.327  2.0712  0.1384 -2.2315
  376CHL     CL 2002   3.358   2.421   1.136  0.1395 -0.3027  0.2556
  376CHL      C 2003   3.431   2.340   1.288 -0.4155 -0.3586  0.0676
  376CHL    CL1 2004   3.586   2.269   1.253 -0.4010  0.4886  0.3559
  376CHL    CL2 2005   3.461   2.467   1.411 -0.0871  0.2220 -0.4069
  376CHL      H 2006   3.363   2.263   1.326  0.5850 -0.5099  1.6728
  377CHL     CL 2007   2.684   3.303   2.659  0.2877  0.1838  0.0288
  377CHL      C 2008   2.640   3.361   2.828 -0.0080  0.3685  0.4458
  377CHL    CL1 2009   2.631   3.537   2.837 -0.1564 -0.2494 -0.0470
  377CHL    CL2 2010   2.479   3.293   2.889  0.1537  0.2188  0.0257
  377CHL      H 2011   2.723   3.327   2.892 -0.1941 -1.1656 -0.0752
  378CHL     CL 2012   2.398   2.932   1.228  0.0779 -0.0463 -0.2539
  378CHL      C 2013   2.548   2.974   1.323  0.5541 -0.1807 -0.0615
  378CHL    CL1 2014   2.535   3.147   1.359 -0.2437  0.1580 -0.0033
  378CHL    CL2 2015   2.591   2.867   1.472 -0.0264 -0.1409  0.7247
  378CHL      H 2016   2.631   2.962   1.252  1.2254  2.0506  0.2434
  379CHL     CL 2017   0.250   0.217   0.056 -0.2006 -0.4201 -0.1171
  379CHL      C 2018   0.282   0.048   0.014 -0.7807  0.5643 -0.1374
  379CHL    CL1 2019   0.434   0.037  -0.083  0.3308  0.0683 -0.4394
  379CHL    CL2 2020   0.302  -0.053   0.155 -0.2623 -0.1232 -0.1076
  379CHL      H 2021   0.206  -0.000  -0.048  1.7603 -3.4951 -0.4447
  380CHL     CL 2022   0.660   2.327   2.431 -0.1820  0.0896 -0.1879
  380CHL      C 2023   0.680   2.252   2.266 -0.4538 -0.8953 -0.5363
  380CHL    CL1 2024   0.783   2.372   2.177 -0.2547  0.2339 -0.3608
  380CHL    CL2 2025   0.749   2.082   2.285  0.2993  0.5019 -0.0179
  380CHL      H 2026   0.583   2.247   2.215 -0.2845  2.2181 -1.3951
  381CHL     CL 2027   3.035   1.263   2.646  0.4665  0.6153 -0.0341
  381CHL      C 2028   2.895   1.352   2.591  0.8015 -0.0355  0.1340
  381CHL    CL1 2029   2.938   1.524   2.568  0.2811 -0.1030 -0.5863
  381CHL    CL2 2030   2.846   1.285   2.425 -0.2047 -0.7184 -0.0038
  381CHL      H 2031   2.812   1.339   2.661  0.0408 -0.4272 -0.8086
  382CHL     CL 2032   2.702   0.865   1.244 -0.7877 -0.3165  0.1920
  382CHL      C 2033   2.526   0.873   1.171  0.1078 -0.4286  0.5090
  382CHL    CL1 2034   2.404   0.756   1.243 -0.1523  0.0949 -0.1953
  382CHL    CL2 2035   2.463   1.041   1.184  0.3119 -0.0413 -0.3569
  382CHL      H 2036   2.535   0.850   1.064 -0.1037  0.1746  0.3611
  383CHL     CL 2037   3.396   1.655   3.239  0.0296  0.2322  0.0049
  383CHL      C 2038   3.513   1.588   3.120  0.1516  0.0746 -0.0966
  383CHL    CL1 2039   3.663   1.690   3.130  0.0086  0.1293 -0.2619
  383CHL    CL2 2040   3.546   1.416   3.141 -0.1399 -0.3549 -0.2828
  383CHL      H 2041   3.474   1.609   3.020  0.9929  0.2744 -0.3852
  384CHL     CL 2042   2.840   1.111   3.626 -0.3376 -0.2774  0.0619
  384CHL      C 2043   2.787   1.237   3.504 -0.9028  0.5999 -0.6025
  384CHL    CL1 2044   2.857   1.400   3.546  0.4255  0.0308  0.1661
  384CHL    CL2 2045   2.851   1.192   3.341 -0.2255 -0.2146  0.2861
  384CHL      H 2046   2.677   1.233   3.494 -1.0745 -1.7989  1.2606
  385CHL     CL 2047   3.431   2.268   0.288  0.0680 -0.3058  0.1692
  385CHL      C 2048   3.289   2.271   0.188  0.5357 -0.2140  0.1941
  385CHL    CL1 2049   3.358   2.260   0.023  0.0411 -0.0933 -0.5047
  385CHL    CL2 2050   3.172   2.140   0.214 -0.3450 -0.2549  0.3408
  385CHL      H 2051   3.241   2.367   0.212  1.6978  1.1088 -2.3812
  386CHL     CL 2052   2.408   3.063   1.683 -0.1321 -0.1733 -0.2065
  386CHL      C 2053   2.359   3.236   1.656  0.3511  0.3299  0.6224
  386CHL    CL1 2054   2.226   3.267   1.759  0.0531  0.2429 -0.0754
  386CHL    CL2 2055   2.509   3.347   1.687  0.0457 -0.2404 -0.1505
  386CHL      H 2056   2.326   3.244   1.552 -1.9661 -2.5429  1.0089
  387CHL     CL 2057   1.483   2.289   3.295  0.2953  0.0250 -0.0500
  387CHL      C 2058   1.347   2.346   3.399 -0.2602 -0.1383  0.3005
  387CHL    CL1 2059   1.189   2.330   3.318 -0.0880 -0.0067  0.4536
  387CHL    CL2 2060   1.342   2.251   3.557 -0.0730  0.1305  0.4674
  387CHL      H 2061   1.356   2.454   3.418 -0.7692  0.0580 -0.5090
  388CHL     CL 2062   1.226   3.358   0.744  0.1945  0.0618 -0.4543
  388CHL      C 2063   1.279   3.215   0.650 -0.3716  0.8807  0.0233
  388CHL    CL1 2064   1.133   3.161   0.556  0.0230  0.0153  0.2003
  388CHL    CL2 2065   1.413   3.236   0.543 -0.2974 -0.0949  0.0775
  388CHL      H 2066   1.300   3.124   0.708 -0.5108  0.0102 -1.2435
  389CHL     CL 2067   1.702   3.396   3.315 -0.3333  0.2832 -0.0781
  389CHL      C 2068   1.582   3.272   3.304  0.0108  0.2728  0.2320
  389CHL    CL1 2069   1.436   3.330   3.212  0.2295 -0.0168  0.1024
  389CHL    CL2 2070   1.659   3.128   3.233  0.0502  0.0340 -0.1229
  389CHL      H 2071   1.550   3.251   3.407 -0.5801 -1.6750 -0.2937
  390CHL     CL 2072   0.791   1.010   3.127  0.0324  0.1544 -0.3028
  390CHL      C 2073   0.958   1.074   3.109 -0.1818 -0.0755 -0.2366
  390CHL    CL1 2074   1.057   1.031   3.256 -0.2394  0.2171 -0.1191
  390CHL    CL2 2075   1.026   1.008   2.952  0.4040  0.4138 -0.3289
  390CHL      H 2076   0.956   1.183   3.099 -0.6847 -0.1301 -0.7930
  391CHL     CL 2077   0.294   1.245   3.311  0.1874 -0.0398 -0.0470
  391CHL      C 2078   0.408   1.108   3.355  0.0471  0.1571  0.3391
  391CHL    CL1 2079   0.574   1.174   3.369  0.0959  0.3029 -0.1698
  391CHL    CL2 2080   0.364   1.030   3.508  0.2974 -0.1811  0.0814
  391CHL      H 2081   0.407   1.036   3.273  1.7553 -1.7123  1.8587
  392CHL     CL 2082   1.031   3.742   3.610  0.2173  0.6477 -0.1778
  392CHL      C 2083   0.956   3.714   3.778 -0.0900 -0.3410  0.3409
  392CHL    CL1 2084   0.815   3.827   3.803  0.0942  0.3402  0.0687
  392CHL    CL2 2085   0.905   3.543   3.795  0.3332 -0.0020  0.5557
  392CHL      H 2086   1.036   3.731   3.852 -0.9576 -0.7244  1.3958
  393CHL     CL 2087   2.906   2.640   2.024 -0.2076  0.1111  0.2650
  393CHL      C 2088   3.037   2.736   2.110 -0.0847 -0.2718 -0.8293
  393CHL    CL1 2089   3.001   2.913   2.119 -0.0910 -0.3329 -0.1931
  393CHL    CL2 2090   3.065   2.665   2.271  0.1980 -0.3391  0.0928
  393CHL      H 2091   3.130   2.729   2.053  0.2309 -0.5904 -0.2888
  394CHL     CL 2092   1.492   1.872   1.674  0.1929  0.1528 -0.2187
  394CHL      C 2093   1.466   2.035   1.760  0.7095 -0.1144 -1.4237
  394CHL    CL1 2094   1.301   2.093   1.721  0.4333 -0.2155  0.4281
  394CHL    CL2 2095   1.489   2.007   1.945  0.1178 -0.0208 -0.2790
  394CHL      H 2096   1.546   2.103   1.727  1.8778 -0.5029  0.4369
  395CHL     CL 2097   2.206   2.605   3.412  0.0280  0.3622  0.5655
  395CHL      C 2098   2.202   2.427   3.411 -0.0727 -0.2890  0.1855
  395CHL    CL1 2099   2.157   2.374   3.252 -0.5203 -0.2405 -0.1679
  395CHL    CL2 2100   2.363   2.360   3.466 -0.3108  0.0294 -0.1843
  395CHL      H 2101   2.124   2.390   3.478  0.8898 -3.2183 -0.1712
  396CHL     CL 2102   0.467   0.488   0.315  0.3901  0.2260 -0.2269
  396CHL      C 2103   0.321   0.593   0.290  0.4848  0.1315  0.1848
  396CHL    CL1 2104   0.320   0.723   0.428  0.3558  0.2180 -0.2733
  396CHL    CL2 2105   0.330   0.654   0.121  0.2555 -0.1331 -0.0458
  396CHL      H 2106   0.238   0.522   0.293  0.7515 -0.2946 -1.5991
  397CHL     CL 2107   0.293   2.825   1.623 -0.0256 -0.1038 -0.1315
  397CHL      C 2108   0.332   2.651   1.668  0.2390 -0.0202  0.2364
  397CHL    CL1 2109   0.348   2.640   1.843 -0.0340 -0.2925  0.2060
  397CHL    CL2 2110   0.187   2.553   1.637 -0.5675  0.2066  0.3509
  397CHL      H 2111   0.422   2.619   1.614  0.0683 -0.1906  0.0494
  398CHL     CL 2112   2.130   3.332   2.807 -0.0979 -0.1550 -0.5166
  398CHL      C 2113   2.189   3.511   2.786 -1.1923  0.0464  0.1520
  398CHL    CL1 2114   2.257   3.539   2.622  0.1207  0.5903  0.2346
  398CHL    CL2 2115   2.041   3.611   2.814  0.1480 -0.1889 -0.0072
  398CHL      H 2116   2.257   3.540   2.867 -0.9286  0.5868 -0.2570
  399CL      CL 2117   2.541   0.695   0.830  0.0217  0.0427 -0.1255
   3.82538   3.82538   3.82538
