nspe_7_1 in water
 2200
    1HCP      H    1   2.128   2.436   1.161 -1.7941  0.3233 -0.8387
    2R02      N    2   2.135   2.528   1.118  0.1462  0.5304 -0.1570
    2R02     C1    3   2.060   2.535   0.984 -0.1459 -0.0339  0.2176
    2R02     H1    4   2.125   2.500   0.903 -0.8426 -1.7144  0.3386
    2R02     C2    5   1.930   2.448   0.979  0.1990 -0.4492 -0.2469
    2R02     H2    6   1.862   2.472   1.062 -0.2266  2.8625 -1.4051
    2R02     H3    7   1.960   2.343   0.976  1.9550 -0.0620  1.4244
    2R02     H4    8   1.869   2.462   0.889 -0.4128  1.2209  0.3890
    2R02     C3    9   2.035   2.681   0.953 -0.0454 -0.0403 -0.0310
    2R02     C4   10   1.946   2.762   1.030 -0.3654 -0.5033 -0.1308
    2R02     H5   11   1.902   2.712   1.116 -0.2267  0.8014  0.7140
    2R02     C5   12   1.937   2.902   1.009  0.5242 -0.2797 -0.1219
    2R02     H6   13   1.874   2.960   1.076  1.0011  1.5096 -1.1634
    2R02     C6   14   2.025   2.968   0.921 -0.0009 -0.4089  0.1654
    2R02     H7   15   2.012   3.074   0.901 -0.4071 -0.7386 -1.4825
    2R02     C7   16   2.092   2.890   0.831 -0.3625  0.1922  1.0339
    2R02     H8   17   2.138   2.928   0.741 -0.5991 -2.0460 -0.1083
    2R02     C8   18   2.103   2.750   0.852 -0.3310  0.3215  0.0665
    2R02     H9   19   2.171   2.700   0.783 -1.2679 -0.4002 -0.3606
    2R02     CA   20   2.262   2.608   1.140  0.3665 -0.3632 -0.6794
    2R02    H10   21   2.234   2.696   1.198 -2.3467 -1.5112 -0.0702
    2R02    H11   22   2.302   2.641   1.043 -0.9113  2.4589 -0.3394
    2R02      C   23   2.355   2.521   1.225 -0.5601 -0.2154 -0.6861
    2R02      O   24   2.342   2.533   1.349 -0.3074  0.8468  0.2041
    3R02      N   25   2.455   2.441   1.173 -0.3609  0.6339  0.0677
    3R02     C1   26   2.455   2.420   1.030  0.1016  0.4695 -0.4404
    3R02     H1   27   2.351   2.409   0.997 -0.2334  0.0584  0.6912
    3R02     C2   28   2.515   2.529   0.950  0.6265  0.2786  0.6424
    3R02     H2   29   2.615   2.514   0.907  0.1620  1.6665 -1.0467
    3R02     H3   30   2.531   2.624   1.003 -2.2312  0.8294  0.6882
    3R02     H4   31   2.461   2.539   0.856  1.4558 -2.3614 -0.2085
    3R02     C3   32   2.501   2.277   0.990 -0.5703 -0.2938  0.1654
    3R02     C4   33   2.642   2.252   0.963  0.5156 -0.2599 -0.2900
    3R02     H5   34   2.715   2.332   0.973  0.2687  0.2374 -2.1321
    3R02     C5   35   2.694   2.126   0.936  0.5138  0.0320 -0.7232
    3R02     H6   36   2.801   2.116   0.921  1.0344  1.1238  1.6497
    3R02     C6   37   2.600   2.020   0.929 -0.1034  0.4011 -0.8687
    3R02     H7   38   2.636   1.920   0.909  0.7590  0.3358  0.8013
    3R02     C7   39   2.463   2.036   0.951 -0.0140 -0.4326 -0.5872
    3R02     H8   40   2.393   1.953   0.946  0.1634 -0.8896  2.6390
    3R02     C8   41   2.411   2.164   0.979  0.7679  0.0646 -0.1752
    3R02     H9   42   2.305   2.180   0.994  0.5987  1.4690 -2.3610
    3R02     CA   43   2.564   2.367   1.261 -0.1035 -0.2077  0.7659
    3R02    H10   44   2.548   2.259   1.270 -0.6545 -0.2419 -0.4374
    3R02    H11   45   2.547   2.405   1.362  1.9143 -1.4409  1.6253
    3R02      C   46   2.706   2.398   1.224 -0.8394  1.0116 -0.5712
    3R02      O   47   2.736   2.513   1.200  0.1213  0.6758  0.8931
    4R02      N   48   2.806   2.302   1.227 -0.0658 -0.3377  0.0443
    4R02     C1   49   2.950   2.341   1.199  0.3423 -0.5282 -0.7248
    4R02     H1   50   2.964   2.438   1.150  0.7537 -0.3985 -0.3569
    4R02     C2   51   3.028   2.364   1.334  0.5594 -0.3426  0.0864
    4R02     H2   52   3.026   2.268   1.386  0.1419  0.4922  1.6866
    4R02     H3   53   2.980   2.438   1.400 -1.8081 -0.0207 -1.8646
    4R02     H4   54   3.129   2.406   1.321 -0.0876  1.3415  0.1852
    4R02     C3   55   3.020   2.242   1.101  0.3638 -0.3557  0.0066
    4R02     C4   56   3.093   2.129   1.142 -1.0334  0.7324  0.3028
    4R02     H5   57   3.102   2.103   1.247  2.6307  0.6997  0.1040
    4R02     C5   58   3.157   2.045   1.047 -0.9186  0.4122  0.8797
    4R02     H6   59   3.206   1.951   1.071  0.1871 -0.0847 -2.6822
    4R02     C6   60   3.147   2.082   0.908  0.0202  0.1809 -0.8211
    4R02     H7   61   3.182   2.019   0.827 -0.3308 -1.0889 -0.0178
    4R02     C7   62   3.074   2.199   0.871 -0.4339  0.3358  0.4630
    4R02     H8   63   3.061   2.223   0.766  0.7158  0.5378  0.3588
    4R02     C8   64   3.008   2.273   0.964 -0.2227 -0.8578  0.6535
    4R02     H9   65   2.936   2.344   0.926  0.1784 -0.2845  0.9506
    4R02     CA   66   2.780   2.174   1.291 -0.3815 -0.1029 -0.2558
    4R02    H10   67   2.844   2.096   1.248  0.8513  1.5181 -1.4966
    4R02    H11   68   2.681   2.132   1.268 -1.4450  1.4926  1.1856
    4R02      C   69   2.784   2.176   1.446 -0.0344  0.1958  0.3365
    4R02      O   70   2.781   2.280   1.506 -0.0413  0.1221 -0.2742
    5R02      N   71   2.768   2.051   1.512 -0.2030 -0.1426 -0.1967
    5R02     C1   72   2.763   2.050   1.661  0.3969 -0.2629  0.7414
    5R02     H1   73   2.700   2.137   1.685 -2.2163 -1.4394 -1.4251
    5R02     C2   74   2.670   1.942   1.720  0.2675 -1.0212 -0.3853
    5R02     H2   75   2.705   1.839   1.710  0.8798 -0.8009 -0.5817
    5R02     H3   76   2.568   1.940   1.679 -0.5481 -0.5470  1.4988
    5R02     H4   77   2.663   1.978   1.823  0.3719 -0.0110 -0.7231
    5R02     C3   78   2.908   2.063   1.731  0.1056 -1.1806  0.6557
    5R02     C4   79   2.984   1.946   1.772 -0.8525 -0.3279  0.7222
    5R02     H5   80   2.949   1.859   1.717  1.6580 -0.5330 -0.7513
    5R02     C5   81   3.106   1.953   1.847 -0.2248 -0.0079  0.0785
    5R02     H6   82   3.168   1.868   1.874 -0.0839 -1.2060 -3.5744
    5R02     C6   83   3.154   2.084   1.877 -0.5501  0.1994  0.8134
    5R02     H7   84   3.254   2.097   1.917 -0.6672 -0.5292  1.3667
    5R02     C7   85   3.092   2.192   1.822  0.1535 -0.8085 -0.3483
    5R02     H8   86   3.134   2.290   1.846  0.2655 -0.9740  0.1412
    5R02     C8   87   2.963   2.189   1.763  0.0550 -0.1935  0.5079
    5R02     H9   88   2.919   2.284   1.735  3.8588  1.3188 -1.0136
    5R02     CA   89   2.770   1.917   1.442  0.1461  0.2715  0.2304
    5R02    H10   90   2.779   1.837   1.516 -0.3509 -0.6037 -0.6440
    5R02    H11   91   2.856   1.921   1.375  0.5364 -1.0566  0.6143
    5R02      C   92   2.635   1.888   1.368 -0.0889 -0.5877 -0.0327
    5R02      O   93   2.544   1.969   1.370 -0.3312  1.2080  0.0310
    6R02      N   94   2.630   1.772   1.292 -0.1743 -0.4836  0.4941
    6R02     C1   95   2.745   1.685   1.273  0.2338  0.4929 -0.0592
    6R02     H1   96   2.836   1.712   1.328  0.0180 -0.6006  0.8835
    6R02     C2   97   2.712   1.538   1.336 -0.3115 -0.6088  0.3159
    6R02     H2   98   2.708   1.540   1.446  0.0967 -1.4281  0.3581
    6R02     H3   99   2.802   1.481   1.308  0.3614 -0.8593  2.6997
    6R02     H4  100   2.624   1.495   1.288  0.2132 -0.7500 -0.5510
    6R02     C3  101   2.789   1.692   1.129 -0.1975 -1.4252 -0.4112
    6R02     C4  102   2.777   1.584   1.034  0.2946  0.0385 -0.2306
    6R02     H5  103   2.735   1.488   1.064  0.2097  1.0225  3.3408
    6R02     C5  104   2.828   1.593   0.903  0.1166  0.4089 -0.4008
    6R02     H6  105   2.828   1.508   0.836 -0.7115  0.0686  0.0190
    6R02     C6  106   2.890   1.710   0.868  0.2341 -0.6150 -0.3711
    6R02     H7  107   2.938   1.723   0.771  0.0768 -0.4617 -0.4292
    6R02     C7  108   2.898   1.820   0.956 -0.7368 -0.0375 -0.4428
    6R02     H8  109   2.957   1.907   0.932 -0.3309 -0.4089 -0.8233
    6R02     C8  110   2.851   1.802   1.087  0.2593  0.4339 -0.2209
    6R02     H9  111   2.863   1.888   1.151  0.5950 -0.1213  0.4766
    6R02     CA  112   2.504   1.730   1.216  0.0364 -0.0883  0.3339
    6R02    H10  113   2.525   1.638   1.160 -0.3221 -0.5610  0.9549
    6R02    H11  114   2.470   1.808   1.148 -1.1477 -1.1721 -0.3618
    6R02      C  115   2.389   1.702   1.323 -0.7805 -0.6204 -0.5857
    6R02      O  116   2.403   1.617   1.408 -0.6178  0.5914 -0.2976
    7R02      N  117   2.268   1.772   1.320  0.1355 -0.1597 -0.1519
    7R02     C1  118   2.235   1.872   1.214  0.5013 -0.7532 -0.3457
    7R02     H1  119   2.327   1.924   1.185 -1.2401  1.5707 -2.0518
    7R02     C2  120   2.185   1.801   1.087  0.5086  0.4924  0.0275
    7R02     H2  121   2.263   1.733   1.051  0.5475  1.0162 -0.9108
    7R02     H3  122   2.159   1.875   1.010  1.6843  1.7354  0.7788
    7R02     H4  123   2.097   1.748   1.126 -0.3151  2.1655  0.5326
    7R02     C3  124   2.140   1.989   1.254 -0.2500  0.2082  1.0370
    7R02     C4  125   2.003   1.980   1.241  0.3201 -0.3528  0.4471
    7R02     H5  126   1.956   1.888   1.208  0.0883  0.8153 -2.8963
    7R02     C5  127   1.929   2.100   1.262  0.1449  0.0411 -0.7473
    7R02     H6  128   1.821   2.097   1.249 -0.1121  2.4625  0.2521
    7R02     C6  129   1.995   2.214   1.309 -0.0224 -0.2434  0.1287
    7R02     H7  130   1.940   2.308   1.317  1.0498  0.4853 -0.8826
    7R02     C7  131   2.133   2.217   1.323 -0.2147 -0.2578 -0.2773
    7R02     H8  132   2.182   2.310   1.350 -0.1948 -0.8376  1.8519
    7R02     C8  133   2.207   2.105   1.294 -0.2053  0.0442 -0.1392
    7R02     H9  134   2.314   2.111   1.311 -0.3322  1.2181  0.3713
    7R02     CA  135   2.157   1.745   1.411 -0.1000  0.0559 -0.2125
    7R02    H10  136   2.064   1.800   1.391 -2.7767 -3.6802  1.0436
    7R02    H11  137   2.190   1.770   1.512  0.1396 -0.6227 -0.1209
    7R02      C  138   2.114   1.601   1.410 -0.2451 -0.2781  0.2953
    7R02      O  139   2.102   1.545   1.306 -0.0266 -0.4433  0.4958
    8R02      N  140   2.083   1.539   1.530 -0.3957 -0.5601 -0.1115
    8R02     C1  141   2.022   1.401   1.522 -0.3667 -0.8727 -0.7769
    8R02     H1  142   2.078   1.340   1.450  0.6137 -1.5797  0.5357
    8R02     C2  143   2.033   1.328   1.659  0.0895  0.0538 -0.0919
    8R02     H2  144   2.013   1.221   1.646 -0.2911  0.2039 -0.8238
    8R02     H3  145   1.960   1.364   1.732 -0.9871 -0.1303 -1.0460
    8R02     H4  146   2.136   1.336   1.693 -1.2063  3.2692  3.7239
    8R02     C3  147   1.877   1.408   1.480  0.3075  0.3273  0.6734
    8R02     C4  148   1.839   1.342   1.359  0.3034  0.3456 -0.4421
    8R02     H5  149   1.911   1.314   1.283 -0.8817 -2.5189 -0.6254
    8R02     C5  150   1.700   1.327   1.336  0.0827 -0.1301 -0.2415
    8R02     H6  151   1.664   1.281   1.244 -4.2880 -1.2568  1.7898
    8R02     C6  152   1.604   1.387   1.413  0.0356 -0.1353 -0.7588
    8R02     H7  153   1.498   1.377   1.391 -0.8446  1.6343  2.0769
    8R02     C7  154   1.649   1.477   1.513  0.0648 -0.4254 -0.3505
    8R02     H8  155   1.575   1.526   1.576  0.9918  0.6715 -0.0927
    8R02     C8  156   1.782   1.486   1.544 -0.2875 -0.4949  0.0786
    8R02     H9  157   1.800   1.553   1.628 -2.3468  0.4709 -0.1877
    8R02     CA  158   2.068   1.608   1.662 -0.1642 -0.2344  0.7208
    8R02    H10  159   1.972   1.575   1.705 -1.8253  2.8168 -0.2955
    8R02    H11  160   2.038   1.713   1.647 -2.0497 -0.8022  0.2285
    8R02      C  161   2.196   1.593   1.744 -0.2000  0.2418  0.3369
    8R02      O  162   2.192   1.607   1.863 -0.0223 -0.2431 -0.1932
    9NH2      N  163   2.317   1.582   1.682 -0.2585  0.1110  0.4789
    9NH2     H1  164   2.326   1.569   1.582 -1.6776 -0.6573  0.4332
    9NH2     H2  165   2.399   1.559   1.738 -0.3436 -0.9142  0.2128
   10UNL     CL  166   2.063   0.896   1.914  0.2340  0.2878  0.0930
   10UNL      C  167   1.963   1.013   1.823  0.5260  0.4613 -0.0739
   10UNL    CL1  168   1.899   0.923   1.687  0.1431 -0.3568 -0.2017
   10UNL    CL2  169   1.822   1.067   1.924 -0.0358 -0.2748  0.1599
   10UNL      H  170   2.023   1.100   1.794  2.3498 -0.2500  1.3359
   11UNL     CL  171   1.879   2.055   0.206 -0.1869 -0.0574 -0.0534
   11UNL      C  172   2.016   1.932   0.223  0.2154 -0.7882 -0.4263
   11UNL    CL1  173   2.165   2.015   0.294  0.1985 -0.3726 -0.5082
   11UNL    CL2  174   1.968   1.804   0.333  0.2921 -0.4262 -0.1369
   11UNL      H  175   2.038   1.895   0.122 -1.0707 -1.8127 -0.3646
   12UNL     CL  176   3.859   1.667   2.653  0.0525  0.1899 -0.0393
   12UNL      C  177   4.022   1.731   2.616 -0.1906 -0.7937  0.4291
   12UNL    CL1  178   4.025   1.910   2.629  0.0271 -0.1296 -0.2518
   12UNL    CL2  179   4.150   1.667   2.733  0.0670 -0.3387  0.1889
   12UNL      H  180   4.041   1.706   2.511 -0.5747  4.1586 -1.0784
   13UNL     CL  181   0.739   2.162   2.060  0.1843 -0.1441  0.2538
   13UNL      C  182   0.659   2.228   2.205 -0.8504  0.2503 -0.8292
   13UNL    CL1  183   0.545   2.375   2.177 -0.4714 -0.0892 -0.0714
   13UNL    CL2  184   0.559   2.109   2.283  0.2203 -0.1121  0.0162
   13UNL      H  185   0.740   2.254   2.274 -1.4768 -0.9878  0.4324
   14UNL     CL  186   1.254   0.696   3.456  0.1135 -0.2718  0.1939
   14UNL      C  187   1.323   0.760   3.302 -0.0697 -0.3150  0.4560
   14UNL    CL1  188   1.189   0.749   3.173  0.1342 -0.2062 -0.0209
   14UNL    CL2  189   1.377   0.926   3.332 -0.1499  0.0502  0.0536
   14UNL      H  190   1.403   0.693   3.269 -1.2493 -2.7125  2.1700
   15UNL     CL  191   2.030   2.353   1.629  0.4933  0.0732 -0.3607
   15UNL      C  192   2.055   2.514   1.568  0.0286 -0.1795  1.0166
   15UNL    CL1  193   1.936   2.555   1.446  0.5624 -0.2935 -0.0079
   15UNL    CL2  194   2.058   2.623   1.708  0.1429  0.3722  0.0859
   15UNL      H  195   2.152   2.516   1.517 -0.2527  0.5942  0.4813
   16UNL     CL  196   3.514   3.159   0.601 -0.0510 -0.0585 -0.5829
   16UNL      C  197   3.577   3.175   0.437  0.4457  0.8914 -0.5082
   16UNL    CL1  198   3.733   3.080   0.420  0.3788 -0.1796  0.1057
   16UNL    CL2  199   3.450   3.125   0.324 -0.2704  0.1315 -0.1574
   16UNL      H  200   3.604   3.280   0.429 -1.1430  1.7142  2.9590
   17UNL     CL  201   1.042   1.578   1.905 -0.2428  0.2225  0.2415
   17UNL      C  202   0.868   1.559   1.924 -0.0765 -0.5457 -0.0327
   17UNL    CL1  203   0.792   1.575   1.759  0.0248  0.1570  0.0766
   17UNL    CL2  204   0.818   1.398   2.008 -0.3212 -0.0566  0.5790
   17UNL      H  205   0.833   1.643   1.986  0.6764 -2.4290  3.1706
   18UNL     CL  206   0.453   2.496   1.794 -0.1638  0.5008  0.0639
   18UNL      C  207   0.591   2.592   1.844  0.6168 -0.2595 -0.3894
   18UNL    CL1  208   0.739   2.490   1.847  0.2229 -0.2211  0.0683
   18UNL    CL2  209   0.610   2.733   1.733  0.3274 -0.2493 -0.4932
   18UNL      H  210   0.575   2.616   1.949  1.2542 -1.8326  0.0824
   19UNL     CL  211   3.014   0.985   3.420 -0.2990  0.1399  0.1014
   19UNL      C  212   3.170   0.992   3.334 -0.5349  0.4524  0.0381
   19UNL    CL1  213   3.304   0.934   3.446  0.2662  0.0361 -0.2700
   19UNL    CL2  214   3.171   0.898   3.177 -0.2684  0.0749  0.1169
   19UNL      H  215   3.191   1.099   3.322 -0.7105  0.4066 -0.6641
   20UNL     CL  216   3.358   3.620   1.358 -0.4126  0.0316  0.2193
   20UNL      C  217   3.522   3.685   1.339  0.2405 -0.5879 -0.1454
   20UNL    CL1  218   3.617   3.556   1.259 -0.0610  0.2611 -0.1000
   20UNL    CL2  219   3.521   3.833   1.227  0.0416  0.2432  0.0715
   20UNL      H  220   3.578   3.707   1.430 -0.8157 -2.0875  0.9139
   21UNL     CL  221   2.660   1.370   2.371  0.1164  0.1344 -0.0361
   21UNL      C  222   2.563   1.311   2.518  0.0239 -0.0711  0.3116
   21UNL    CL1  223   2.632   1.398   2.660 -0.2621  0.1892 -0.2296
   21UNL    CL2  224   2.396   1.362   2.490 -0.0054  0.0672  0.0535
   21UNL      H  225   2.575   1.202   2.519 -0.7135 -0.1564 -0.0303
   22UNL     CL  226   1.961   1.925   1.935  0.2722  0.0171 -0.4085
   22UNL      C  227   2.046   1.821   2.054  0.7560  0.5018  0.1683
   22UNL    CL1  228   2.203   1.887   2.088 -0.0752 -0.0822 -0.2563
   22UNL    CL2  229   1.941   1.801   2.196 -0.1098 -0.1863 -0.0918
   22UNL      H  230   2.054   1.722   2.007  3.5757 -0.2706  1.9799
   23UNL     CL  231   2.975   1.389   2.511 -0.1449  0.4994  0.1396
   23UNL      C  232   3.137   1.406   2.427  0.7114 -0.0497  0.2778
   23UNL    CL1  233   3.114   1.334   2.267  0.3477 -0.1797  0.3183
   23UNL    CL2  234   3.183   1.575   2.405 -0.2556 -0.0181  0.0446
   23UNL      H  235   3.214   1.344   2.474  1.0170  2.0348  2.7260
   24UNL     CL  236   3.522   1.878   0.116  0.1824  0.0457 -0.0578
   24UNL      C  237   3.542   1.862  -0.060 -0.0453  0.0299 -0.2705
   24UNL    CL1  238   3.395   1.913  -0.155 -0.0110 -0.0905  0.4104
   24UNL    CL2  239   3.681   1.961  -0.110 -0.0998  0.3394  0.4192
   24UNL      H  240   3.563   1.757  -0.082  1.1050  0.8675 -4.0089
   25UNL     CL  241   3.641   1.187   0.563 -0.1164  0.0836  0.2358
   25UNL      C  242   3.793   1.116   0.619 -0.1454 -0.4646  0.3602
   25UNL    CL1  243   3.922   1.235   0.575 -0.2875 -0.0008  0.5097
   25UNL    CL2  244   3.784   1.086   0.801  0.2337 -0.4467 -0.0986
   25UNL      H  245   3.809   1.025   0.559  1.7080  1.6761 -2.6929
   26UNL     CL  246   1.909   0.224   1.539 -0.3006  0.2358  0.1495
   26UNL      C  247   1.955   0.081   1.441 -0.2091  0.5766  0.4480
   26UNL    CL1  248   1.954   0.138   1.272  0.1965  0.3186  0.1275
   26UNL    CL2  249   2.121   0.022   1.487  0.3434  0.1300  0.1024
   26UNL      H  250   1.884  -0.001   1.447 -0.1307  0.4820  0.1390
   27UNL     CL  251   2.456   3.046   0.685  0.0221 -0.0529 -0.4308
   27UNL      C  252   2.533   3.002   0.840  0.3201 -0.0417  0.7319
   27UNL    CL1  253   2.417   2.955   0.958 -0.1210 -0.3460  0.4406
   27UNL    CL2  254   2.641   2.873   0.800 -0.1461  0.1126  0.1623
   27UNL      H  255   2.598   3.082   0.878 -0.0946  0.2420  0.8549
   28UNL     CL  256   0.913   1.464   3.387  0.1242 -0.4380 -0.2536
   28UNL      C  257   0.882   1.622   3.459 -0.0294 -0.2887  0.3295
   28UNL    CL1  258   0.960   1.610   3.625  0.5063  0.1743  0.4757
   28UNL    CL2  259   0.980   1.735   3.362 -0.2310  0.1159 -0.2614
   28UNL      H  260   0.777   1.653   3.459  0.2781  0.8406  1.7261
   29UNL     CL  261   1.085   1.996   2.514  0.2689  0.3647  0.0911
   29UNL      C  262   1.037   2.167   2.488 -0.0656 -0.5546 -0.0764
   29UNL    CL1  263   1.010   2.203   2.316 -0.0455 -0.0284  0.1512
   29UNL    CL2  264   0.877   2.207   2.565  0.1763 -0.3357 -0.1346
   29UNL      H  265   1.109   2.239   2.528 -0.0220 -0.5165 -0.2225
   30UNL     CL  266   3.860   1.246   2.222 -0.3434  0.1474  0.0094
   30UNL      C  267   3.986   1.110   2.222 -0.1950  0.2725  0.1529
   30UNL    CL1  268   4.152   1.165   2.180 -0.5145  0.1890 -0.3936
   30UNL    CL2  269   3.984   1.031   2.383  0.2022 -0.1127  0.5375
   30UNL      H  270   3.953   1.027   2.158 -1.0332 -0.2171  1.1876
   31UNL     CL  271   3.605   0.675   3.693  0.0194 -0.5593  0.2405
   31UNL      C  272   3.548   0.845   3.687 -0.8946  0.0775  0.1892
   31UNL    CL1  273   3.449   0.880   3.832 -0.2373  0.1336 -0.1713
   31UNL    CL2  274   3.685   0.970   3.672 -0.2518 -0.1322 -0.0726
   31UNL      H  275   3.480   0.842   3.601 -1.5682 -0.2482  0.7171
   32UNL     CL  276   0.158   2.293   1.862 -0.2549  0.1557  0.0775
   32UNL      C  277   0.221   2.215   2.010  1.7179  0.4689  0.0823
   32UNL    CL1  278   0.086   2.150   2.118 -0.0624  0.2293 -0.0778
   32UNL    CL2  279   0.324   2.074   1.962  0.6192 -0.0496 -0.3435
   32UNL      H  280   0.277   2.288   2.069  1.6029  0.7910 -0.2035
   33UNL     CL  281   1.370   3.698   0.579  0.2535 -0.1852 -0.2282
   33UNL      C  282   1.297   3.829   0.677  0.2248  0.3512  0.2122
   33UNL    CL1  283   1.169   3.765   0.787  0.0835  0.1540  0.2245
   33UNL    CL2  284   1.419   3.911   0.779  0.0722  0.1931 -0.0741
   33UNL      H  285   1.259   3.913   0.617 -1.3711  0.3085  1.1274
   34UNL     CL  286   1.681   2.809   1.599 -0.2813  0.1540  0.3766
   34UNL      C  287   1.530   2.775   1.510 -0.3647  0.6640  0.6705
   34UNL    CL1  288   1.415   2.705   1.631 -0.3387 -0.4612 -0.0861
   34UNL    CL2  289   1.485   2.937   1.445  0.0218  0.3581 -0.4481
   34UNL      H  290   1.552   2.697   1.436 -0.3263 -0.2843  1.6614
   35UNL     CL  291   0.032   2.140   0.274  0.0330  0.0389  0.6463
   35UNL      C  292   0.123   2.012   0.185 -0.7277  0.7083 -0.1476
   35UNL    CL1  293   0.278   1.978   0.259  0.1240 -0.5963 -0.0962
   35UNL    CL2  294   0.026   1.862   0.190 -0.1357 -0.2106 -0.1434
   35UNL      H  295   0.144   2.050   0.085  0.8705  1.2005  0.3390
   36UNL     CL  296   3.341   2.373   2.861 -0.0647 -0.3258  0.3082
   36UNL      C  297   3.329   2.502   2.744 -0.9076  0.3679 -0.2964
   36UNL    CL1  298   3.306   2.650   2.835  0.4028  0.0534  0.0718
   36UNL    CL2  299   3.480   2.498   2.643  0.1036  0.1757  0.3302
   36UNL      H  300   3.244   2.467   2.685  1.1996 -4.0913 -1.0414
   37UNL     CL  301   0.509   3.744   3.137  0.2418  0.0183  0.4760
   37UNL      C  302   0.380   3.625   3.192 -0.5658  0.3646 -0.7417
   37UNL    CL1  303   0.217   3.698   3.177 -0.0924 -0.4019 -0.0950
   37UNL    CL2  304   0.390   3.465   3.090  0.0073  0.0313  0.3585
   37UNL      H  305   0.394   3.606   3.299 -1.6104  1.4667 -0.3900
   38UNL     CL  306   1.514   3.513   1.810  0.1212 -0.0162  0.4464
   38UNL      C  307   1.660   3.621   1.820 -0.6397  0.0976  0.0482
   38UNL    CL1  308   1.681   3.719   1.662 -0.0576 -0.0753  0.0212
   38UNL    CL2  309   1.635   3.734   1.958 -0.5179 -0.4179  0.1396
   38UNL      H  310   1.741   3.550   1.842 -1.0424 -0.0953  0.9593
   39UNL     CL  311   2.681   2.880   1.224 -0.0100  0.5004  0.3905
   39UNL      C  312   2.814   2.798   1.332  0.2083 -0.0661 -0.1680
   39UNL    CL1  313   2.969   2.783   1.237  0.0657  0.1030  0.3966
   39UNL    CL2  314   2.858   2.906   1.464  0.3062  0.1735 -0.0885
   39UNL      H  315   2.777   2.710   1.385  1.0514  0.5789  1.5735
   40UNL     CL  316   3.855   0.709   3.187  0.1157  0.0983 -0.3406
   40UNL      C  317   3.775   0.576   3.081 -0.4589  0.1469 -0.0766
   40UNL    CL1  318   3.825   0.601   2.914 -0.0067  0.3149 -0.3002
   40UNL    CL2  319   3.821   0.410   3.150 -0.4029  0.1821 -0.1200
   40UNL      H  320   3.666   0.581   3.085 -0.7665 -3.8906  2.3913
   41UNL     CL  321   0.657   0.459   0.715 -0.1336 -0.2010 -0.0767
   41UNL      C  322   0.689   0.542   0.878  0.0035  0.1664  0.8480
   41UNL    CL1  323   0.838   0.635   0.894  0.3349  0.3491  0.1443
   41UNL    CL2  324   0.562   0.670   0.894 -0.0471  0.0003 -0.0177
   41UNL      H  325   0.677   0.483   0.970 -0.0175  0.7794  1.2486
   42UNL     CL  326   1.599   0.902   0.185  0.0792 -0.0026  0.0540
   42UNL      C  327   1.636   0.736   0.248 -0.1044  0.3697 -0.1122
   42UNL    CL1  328   1.815   0.713   0.237  0.4701  0.3287 -0.0874
   42UNL    CL2  329   1.573   0.725   0.413 -0.3922  0.2336  0.0253
   42UNL      H  330   1.575   0.663   0.193 -2.1002  1.9992 -0.1716
   43UNL     CL  331   3.458   2.624   2.280 -0.2967 -0.2792 -0.2133
   43UNL      C  332   3.638   2.610   2.260  0.1916  0.2833 -0.3892
   43UNL    CL1  333   3.663   2.447   2.182  0.3676  0.5099 -0.3457
   43UNL    CL2  334   3.699   2.747   2.162  0.0742 -0.3346 -0.0985
   43UNL      H  335   3.691   2.613   2.355  0.3825 -1.6416 -0.3824
   44UNL     CL  336   2.606   0.514   0.582  0.2620 -0.2077 -0.1733
   44UNL      C  337   2.499   0.655   0.602  0.0585  0.4833  0.2523
   44UNL    CL1  338   2.343   0.632   0.515  0.1157 -0.0802 -0.0284
   44UNL    CL2  339   2.475   0.696   0.782 -0.1348 -0.0819  0.1510
   44UNL      H  340   2.559   0.731   0.551 -0.6524  0.8900  0.0253
   45UNL     CL  341   0.290   0.845   3.220 -0.1891  0.0058  0.0393
   45UNL      C  342   0.341   0.902   3.061 -0.6200 -0.3678 -0.3351
   45UNL    CL1  343   0.482   1.023   3.054  0.2427 -0.2158 -0.1113
   45UNL    CL2  344   0.369   0.759   2.954 -0.1759 -0.1657  0.0480
   45UNL      H  345   0.258   0.952   3.010 -1.0496 -2.4674 -1.8312
   46UNL     CL  346   0.030   2.275   3.802  0.0160  0.1996 -0.6284
   46UNL      C  347   0.024   2.437   3.881  0.2649 -0.8547 -0.3823
   46UNL    CL1  348   0.170   2.487   3.962 -0.0982  0.1014 -0.1359
   46UNL    CL2  349  -0.013   2.559   3.749 -0.0859 -0.1369 -0.4325
   46UNL      H  350  -0.058   2.447   3.953  1.7727 -0.3786  1.3407
   47UNL     CL  351   2.056   0.599   2.043  0.3257  0.1066 -0.1501
   47UNL      C  352   1.989   0.610   2.216  0.2682  0.4297 -0.8295
   47UNL    CL1  353   2.046   0.485   2.322 -0.1410  0.0584 -0.0898
   47UNL    CL2  354   2.011   0.773   2.291  0.2137  0.3350 -0.5993
   47UNL      H  355   1.880   0.603   2.209  0.3729  0.2773 -3.1770
   48UNL     CL  356   2.480   0.039   2.429 -0.0724  0.5780  0.1310
   48UNL      C  357   2.604  -0.042   2.538  0.3722 -0.8347 -0.3075
   48UNL    CL1  358   2.769  -0.012   2.461 -0.2234  0.0294 -0.0759
   48UNL    CL2  359   2.606   0.020   2.714 -0.2470  0.0460 -0.0316
   48UNL      H  360   2.589  -0.150   2.547 -1.1974 -0.5757  0.5901
   49UNL     CL  361   1.367   1.058   3.682 -0.2649 -0.1160 -0.0886
   49UNL      C  362   1.296   1.219   3.634 -1.3963  0.6460 -0.5057
   49UNL    CL1  363   1.423   1.296   3.538 -0.4558  0.1796 -0.1044
   49UNL    CL2  364   1.141   1.207   3.542  0.0431  0.0206  0.4441
   49UNL      H  365   1.282   1.278   3.725 -0.7183  1.1636 -0.7211
   50UNL     CL  366   2.563   3.013   3.592  0.1595 -0.2516  0.3687
   50UNL      C  367   2.527   2.944   3.755  0.0524 -0.5027 -0.1052
   50UNL    CL1  368   2.669   2.847   3.811 -0.1442  0.5215 -0.0934
   50UNL    CL2  369   2.499   3.069   3.884  0.0072  0.1432 -0.0410
   50UNL      H  370   2.435   2.884   3.754 -0.4712  0.2842  0.4778
   51UNL     CL  371   3.619   1.812   1.407  0.2166  0.3216  0.1984
   51UNL      C  372   3.591   1.877   1.245 -0.2646  0.3016  0.3369
   51UNL    CL1  373   3.419   1.938   1.248 -0.5938  0.3001  0.4432
   51UNL    CL2  374   3.710   2.006   1.216  0.0668 -0.0414 -0.0081
   51UNL      H  375   3.593   1.794   1.173 -0.1095 -0.1027  0.7963
   52UNL     CL  376   1.729   3.525   0.958 -0.2039  0.2785  0.0048
   52UNL      C  377   1.837   3.385   0.943 -0.0789  0.0420  0.0637
   52UNL    CL1  378   1.740   3.231   0.958  0.0616  0.1126 -0.0811
   52UNL    CL2  379   1.928   3.389   0.790 -0.1103  0.0651 -0.3033
   52UNL      H  380   1.913   3.382   1.022 -0.6043 -2.5188  0.5482
   53UNL     CL  381   0.889   1.101   3.747 -0.4852 -0.1434 -0.1901
   53UNL      C  382   0.822   1.260   3.814  0.2791 -0.0269 -0.0692
   53UNL    CL1  383   0.966   1.362   3.871 -0.0736 -0.3340 -0.5208
   53UNL    CL2  384   0.742   1.342   3.682 -0.2706 -0.1342  0.0063
   53UNL      H  385   0.754   1.245   3.899 -2.0777 -0.9706 -1.9819
   54UNL     CL  386   2.967   3.555   1.833  0.1579 -0.1962  0.0643
   54UNL      C  387   3.004   3.711   1.894  0.0406 -0.7280  0.1441
   54UNL    CL1  388   2.910   3.742   2.039  0.4610 -0.1763  0.4531
   54UNL    CL2  389   3.187   3.730   1.909 -0.0490 -0.1909  0.0243
   54UNL      H  390   2.963   3.785   1.825 -2.5042 -1.4536  0.7770
   55UNL     CL  391   1.511   3.257   3.245  0.1723 -0.2757  0.0887
   55UNL      C  392   1.449   3.207   3.082  0.4292  0.1993 -0.6333
   55UNL    CL1  393   1.387   3.042   3.084 -0.2588 -0.1024 -0.1703
   55UNL    CL2  394   1.320   3.322   3.022  0.4587 -0.2431 -0.1435
   55UNL      H  395   1.537   3.200   3.018  1.2433 -1.0025  0.5528
   56UNL     CL  396   2.246   0.266   2.132  0.0232 -0.1610  0.1821
   56UNL      C  397   2.355   0.401   2.069  0.2317  0.0355 -0.5832
   56UNL    CL1  398   2.502   0.434   2.173 -0.0491 -0.0549  0.3187
   56UNL    CL2  399   2.412   0.348   1.897 -0.3229  0.0935 -0.2063
   56UNL      H  400   2.296   0.493   2.059  3.2408  1.9822 -1.8797
   57UNL     CL  401   0.296   2.386   3.411 -0.5960 -0.4022  0.1754
   57UNL      C  402   0.194   2.242   3.430  0.8120 -0.0131  0.1771
   57UNL    CL1  403   0.176   2.167   3.271  0.1957  0.2080  0.0817
   57UNL    CL2  404   0.272   2.127   3.538 -0.1940  0.0865  0.3456
   57UNL      H  405   0.095   2.268   3.469  0.5057 -1.6458  0.5803
   58UNL     CL  406   3.465   1.449   0.370  0.0384 -0.1627 -0.2476
   58UNL      C  407   3.622   1.409   0.288 -0.3735 -1.0635 -0.1814
   58UNL    CL1  408   3.608   1.263   0.183  0.0730 -0.1702 -0.2368
   58UNL    CL2  409   3.675   1.551   0.186  0.4034 -0.2319  0.2454
   58UNL      H  410   3.697   1.393   0.366  2.0251 -0.0050 -2.1095
   59UNL     CL  411   2.356   2.990   1.359 -0.2300  0.2515 -0.0652
   59UNL      C  412   2.337   3.156   1.442 -0.0989  0.4260  0.5210
   59UNL    CL1  413   2.466   3.168   1.568  0.0218  0.3849 -0.1896
   59UNL    CL2  414   2.345   3.301   1.334  0.2012  0.4236  0.2297
   59UNL      H  415   2.242   3.153   1.496  0.0579 -1.7556  0.7794
   60UNL     CL  416   3.348   0.196   0.765 -0.2224  0.0980 -0.1007
   60UNL      C  417   3.246   0.256   0.902 -0.2727  0.8331 -0.0328
   60UNL    CL1  418   3.327   0.229   1.061 -0.2925  0.2651  0.0472
   60UNL    CL2  419   3.201   0.424   0.885 -0.5289 -0.8580 -0.8080
   60UNL      H  420   3.152   0.200   0.893 -0.8772  1.8491 -0.2516
   61UNL     CL  421   2.910   2.269   3.609 -0.0644 -0.1221 -0.0866
   61UNL      C  422   2.913   2.110   3.525 -0.7120  0.3186  0.2045
   61UNL    CL1  423   3.014   2.134   3.369  0.0791  0.7379 -0.2199
   61UNL    CL2  424   3.019   2.002   3.620  0.0086  0.1243  0.3645
   61UNL      H  425   2.812   2.076   3.498 -0.9137  1.5543 -0.6665
   62UNL     CL  426   0.802   0.917   1.990  0.0152 -0.1414 -0.0745
   62UNL      C  427   0.738   1.061   1.903 -0.6236  0.4300 -0.2572
   62UNL    CL1  428   0.674   1.026   1.744 -0.3145 -0.2086  0.3781
   62UNL    CL2  429   0.604   1.136   2.009 -0.0344 -0.1391  0.1578
   62UNL      H  430   0.823   1.128   1.884  1.0126 -1.7801 -1.0962
   63UNL     CL  431   2.677   1.498   3.403  0.0302  0.0680  0.2149
   63UNL      C  432   2.800   1.476   3.525 -0.4014  0.3301 -0.0321
   63UNL    CL1  433   2.740   1.483   3.698  0.3245 -0.1643 -0.0044
   63UNL    CL2  434   2.880   1.310   3.498 -0.2619 -0.0743 -0.0559
   63UNL      H  435   2.879   1.548   3.503 -0.2270  0.0679 -0.2754
   64UNL     CL  436   1.647   1.580   2.996 -0.3315  0.1557 -0.4091
   64UNL      C  437   1.739   1.733   3.020  0.1564  0.4323 -0.1166
   64UNL    CL1  438   1.749   1.769   3.201 -0.0464  0.0593 -0.0306
   64UNL    CL2  439   1.907   1.715   2.966 -0.1233 -0.1788  0.3878
   64UNL      H  440   1.680   1.810   2.969 -1.3956 -0.2787  0.5477
   65UNL     CL  441   1.013   3.405   3.111 -0.2813 -0.1212 -0.1818
   65UNL      C  442   0.876   3.302   3.125  0.1300  0.5344  0.2268
   65UNL    CL1  443   0.918   3.185   3.250  0.3548 -0.1724 -0.1278
   65UNL    CL2  444   0.742   3.424   3.163  0.0447 -0.1720  0.1172
   65UNL      H  445   0.850   3.256   3.029 -0.9475 -0.8092  1.1258
   66UNL     CL  446   0.967   3.249   1.729 -0.3052  0.2448 -0.0155
   66UNL      C  447   0.792   3.272   1.772 -0.4751 -0.4222 -0.2492
   66UNL    CL1  448   0.757   3.441   1.743 -0.0135  0.1587  0.4407
   66UNL    CL2  449   0.699   3.162   1.665  0.5033  0.2026  0.1263
   66UNL      H  450   0.790   3.250   1.879 -2.9317  1.1305  0.0986
   67UNL     CL  451   0.688   1.209   2.863 -0.3002 -0.0281 -0.2879
   67UNL      C  452   0.774   1.053   2.813  0.0176 -0.3085 -0.3070
   67UNL    CL1  453   0.872   1.000   2.955  0.0703  0.1106 -0.0154
   67UNL    CL2  454   0.655   0.928   2.768 -0.1033 -0.1523 -0.3847
   67UNL      H  455   0.839   1.064   2.725  1.5136 -3.1699  0.3490
   68UNL     CL  456   2.696   2.204   0.104  0.1502  0.0862  0.0973
   68UNL      C  457   2.850   2.208   0.190 -0.3152  0.7211  0.4031
   68UNL    CL1  458   2.849   2.106   0.332  0.0912 -0.0820  0.0326
   68UNL    CL2  459   2.983   2.151   0.084 -0.2482 -0.4180 -0.1203
   68UNL      H  460   2.866   2.312   0.221 -0.3576  0.7595  0.2964
   69UNL     CL  461   1.301   1.436   0.882  0.2540 -0.4708  0.0665
   69UNL      C  462   1.362   1.391   1.050 -0.2802  0.5254 -0.5164
   69UNL    CL1  463   1.527   1.455   1.084  0.2127  0.2177  0.6826
   69UNL    CL2  464   1.254   1.454   1.174  0.0248 -0.2419  0.0344
   69UNL      H  465   1.357   1.282   1.057  0.6518  0.4828 -0.4484
   70UNL     CL  466   0.851   0.846   2.415 -0.1380  0.3843 -0.2779
   70UNL      C  467   0.916   0.693   2.348 -0.5830  0.2597  0.9134
   70UNL    CL1  468   0.784   0.612   2.249  0.0600  0.1109  0.0400
   70UNL    CL2  469   1.054   0.725   2.227  0.2596 -0.0695 -0.1205
   70UNL      H  470   0.948   0.636   2.436  1.9210  1.7328  1.0672
   71UNL     CL  471   2.976   1.120   1.414 -0.0482 -0.2695 -0.6052
   71UNL      C  472   2.860   1.014   1.316 -0.3026 -0.1255  0.1931
   71UNL    CL1  473   2.882   0.835   1.344 -0.4164  0.1490  0.1210
   71UNL    CL2  474   2.691   1.068   1.336  0.1925 -0.5070  0.5588
   71UNL      H  475   2.893   1.024   1.212  3.7176  0.4972  1.3511
   72UNL     CL  476   3.737   3.686   3.798  0.0999  0.2331  0.3578
   72UNL      C  477   3.578   3.714   3.724  0.1520 -0.4682 -0.1906
   72UNL    CL1  478   3.465   3.773   3.848  0.0251 -0.1388 -0.0935
   72UNL    CL2  479   3.595   3.829   3.584  0.0709  0.4112  0.1168
   72UNL      H  480   3.544   3.615   3.692  1.3656 -0.4697 -1.5960
   73UNL     CL  481   0.324   0.799   1.918  0.4100 -0.2979  0.2832
   73UNL      C  482   0.483   0.745   1.962 -0.3860 -0.1264  0.5743
   73UNL    CL1  483   0.523   0.800   2.124 -0.3217  0.1634  0.2825
   73UNL    CL2  484   0.486   0.564   1.974 -0.1815 -0.2761 -0.2202
   73UNL      H  485   0.550   0.794   1.891 -0.9375  0.5204  0.4936
   74UNL     CL  486   3.627   3.135   1.218 -0.0977 -0.1432  0.2278
   74UNL      C  487   3.710   3.041   1.089 -0.5219  0.2071 -0.1366
   74UNL    CL1  488   3.801   2.899   1.159 -0.0976  0.4451 -0.3364
   74UNL    CL2  489   3.598   2.989   0.960  0.1366 -0.0452 -0.4871
   74UNL      H  490   3.788   3.102   1.042  1.4722 -1.9726  0.1696
   75UNL     CL  491   0.469   0.637   2.626  0.1405 -0.1029  0.0615
   75UNL      C  492   0.325   0.706   2.535  0.8562  0.1320 -0.1961
   75UNL    CL1  493   0.184   0.589   2.527  0.2973  0.1368  0.4417
   75UNL    CL2  494   0.281   0.851   2.620  0.3536  0.2216  0.0505
   75UNL      H  495   0.352   0.718   2.429  1.1549  1.3620  0.0067
   76UNL     CL  496   1.219   2.534   1.848 -0.2028 -0.1087 -0.1869
   76UNL      C  497   1.210   2.370   1.920  0.9757  0.3969 -0.4671
   76UNL    CL1  498   1.276   2.370   2.092 -0.0182 -0.2860  0.3628
   76UNL    CL2  499   1.031   2.307   1.915  0.0961  0.1346 -0.3714
   76UNL      H  500   1.275   2.302   1.864  1.1909 -0.7618  1.1116
   77UNL     CL  501   2.454   2.628   1.767 -0.3997  0.1302 -0.2176
   77UNL      C  502   2.604   2.546   1.713  0.2088  0.7428  0.0411
   77UNL    CL1  503   2.704   2.659   1.623  0.0879 -0.4020 -0.0708
   77UNL    CL2  504   2.700   2.493   1.852 -0.1820 -0.1324 -0.0973
   77UNL      H  505   2.593   2.466   1.639 -1.2333  0.5293  0.4636
   78UNL     CL  506   2.907   0.111   1.002  0.1108  0.1882  0.4616
   78UNL      C  507   2.860   0.103   0.832 -0.5794 -0.2426  0.2833
   78UNL    CL1  508   2.819   0.268   0.761 -0.2621 -0.3020 -0.1760
   78UNL    CL2  509   2.981   0.015   0.739  0.0479  0.0997  0.4055
   78UNL      H  510   2.770   0.042   0.825 -0.7984 -0.0510  1.2526
   79UNL     CL  511   2.400   1.286   1.547 -0.0207  0.1178 -0.0938
   79UNL      C  512   2.387   1.128   1.635  0.1400  1.0318  0.2012
   79UNL    CL1  513   2.402   1.145   1.816 -0.1747  0.0200  0.0350
   79UNL    CL2  514   2.229   1.041   1.608 -0.1944  0.2525 -0.1377
   79UNL      H  515   2.468   1.064   1.597 -1.4408 -0.0946 -1.4030
   80UNL     CL  516   2.377   0.625   2.426  0.2368  0.1942 -0.1100
   80UNL      C  517   2.283   0.693   2.560  0.9029  0.0856  0.6754
   80UNL    CL1  518   2.211   0.546   2.639 -0.4285 -0.3621  0.3961
   80UNL    CL2  519   2.385   0.778   2.681 -0.6015 -0.3202 -0.5074
   80UNL      H  520   2.208   0.766   2.528  0.1392 -1.0213 -0.1219
   81UNL     CL  521   1.089   0.057   3.582  0.4242  0.5602  0.2246
   81UNL      C  522   1.091  -0.038   3.731 -0.3790 -0.4000  0.4384
   81UNL    CL1  523   1.257  -0.075   3.791 -0.1010  0.3292  0.4954
   81UNL    CL2  524   1.008   0.076   3.843 -0.2083  0.2676  0.0242
   81UNL      H  525   1.032  -0.128   3.710  0.7472 -0.6956 -1.7422
   82UNL     CL  526   3.396   2.897   3.276 -0.3381  0.3073  0.2125
   82UNL      C  527   3.481   3.056   3.294 -0.1252  0.2257 -0.6320
   82UNL    CL1  528   3.657   3.017   3.317 -0.0925 -0.0558 -0.2284
   82UNL    CL2  529   3.465   3.154   3.144 -0.3193  0.4364 -0.4578
   82UNL      H  530   3.449   3.118   3.378  0.0370  0.4372 -0.7254
   83UNL     CL  531   3.603   3.619   2.075 -0.4808  0.1916  0.1424
   83UNL      C  532   3.539   3.723   1.953 -0.3023  1.0526  0.7052
   83UNL    CL1  533   3.500   3.882   2.027  0.0149  0.1128  0.1904
   83UNL    CL2  534   3.659   3.739   1.825  0.2828 -0.1674 -0.0918
   83UNL      H  535   3.441   3.691   1.916  0.6375 -0.6849 -0.4269
   84UNL     CL  536   1.048   2.907   1.676  0.2395  0.0450 -0.1794
   84UNL      C  537   1.046   2.820   1.515  0.1108 -0.2018  1.2970
   84UNL    CL1  538   0.982   2.653   1.554  0.1374 -0.0538  0.0321
   84UNL    CL2  539   0.946   2.890   1.391 -0.5907 -0.0710 -0.0626
   84UNL      H  540   1.150   2.804   1.483 -0.4957 -1.4007 -0.2011
   85UNL     CL  541   2.408   1.110   3.140  0.1353 -0.0613 -0.1122
   85UNL      C  542   2.357   0.995   3.262 -0.4369 -0.2283 -0.0447
   85UNL    CL1  543   2.450   1.030   3.411  0.3139 -0.1880  0.0470
   85UNL    CL2  544   2.185   1.001   3.308 -0.0542  0.0826 -0.1375
   85UNL      H  545   2.392   0.897   3.227  0.8896 -0.0363  0.6663
   86UNL     CL  546   1.156   1.613   0.198 -0.2238  0.1210  0.0660
   86UNL      C  547   1.210   1.651   0.363  0.0685  0.1292 -0.5142
   86UNL    CL1  548   1.381   1.598   0.387 -0.2037  0.2225  0.1015
   86UNL    CL2  549   1.190   1.828   0.398  0.3435 -0.0892 -0.0891
   86UNL      H  550   1.146   1.596   0.434  0.0770  1.7514  0.8261
   87UNL     CL  551   0.512   1.433   1.665  0.2833 -0.2734  0.2979
   87UNL      C  552   0.446   1.600   1.625  0.3833  0.1408  0.3247
   87UNL    CL1  553   0.409   1.613   1.448  0.2605 -0.3660  0.3130
   87UNL    CL2  554   0.288   1.624   1.709  0.2569  0.2988 -0.0632
   87UNL      H  555   0.504   1.687   1.655 -0.5048  0.3251  1.5814
   88UNL     CL  556   0.368   0.156   0.224 -0.0445 -0.2733  0.5344
   88UNL      C  557   0.403   0.325   0.260  0.2804 -0.6187 -0.5236
   88UNL    CL1  558   0.374   0.430   0.114 -0.0651  0.3174 -0.0750
   88UNL    CL2  559   0.299   0.381   0.394 -0.2778 -0.2740  0.0894
   88UNL      H  560   0.509   0.331   0.285  0.0030  0.8354  0.3809
   89UNL     CL  561   3.515   0.922   1.698  0.0888  0.0401  0.2002
   89UNL      C  562   3.375   1.000   1.769 -0.4389 -0.2661 -0.1483
   89UNL    CL1  563   3.275   1.049   1.633 -0.5546  0.0043  0.0399
   89UNL    CL2  564   3.288   0.873   1.871  0.2703 -0.1990  0.0283
   89UNL      H  565   3.400   1.089   1.827  0.7192  0.5636 -1.8337
   90UNL     CL  566   3.702   3.408   3.511 -0.5028  0.3839  0.1967
   90UNL      C  567   3.874   3.432   3.474 -0.8089  1.1246 -0.8148
   90UNL    CL1  568   3.957   3.513   3.617  0.2479 -0.3811 -0.2973
   90UNL    CL2  569   3.942   3.271   3.448 -0.1861 -0.2891 -0.1911
   90UNL      H  570   3.889   3.489   3.382 -0.8579 -0.5929 -1.9402
   91UNL     CL  571   3.645   1.580   2.396  0.0632  0.2643 -0.1916
   91UNL      C  572   3.644   1.742   2.307  0.7269 -0.9197 -0.1986
   91UNL    CL1  573   3.480   1.828   2.325  0.1688  0.2093 -0.0275
   91UNL    CL2  574   3.767   1.849   2.388  0.0824  0.1191  0.2863
   91UNL      H  575   3.682   1.729   2.205  1.9276  1.7456 -0.1589
   92UNL     CL  576   0.508   0.025   1.990 -0.1871  0.0343 -0.3509
   92UNL      C  577   0.630   0.095   2.109 -0.3222 -0.1796 -0.0527
   92UNL    CL1  578   0.790   0.035   2.059 -0.2212 -0.4167 -0.1621
   92UNL    CL2  579   0.626   0.268   2.081 -0.0441 -0.0596 -0.0864
   92UNL      H  580   0.597   0.068   2.209 -2.8315  0.1385 -0.7078
   93UNL     CL  581   2.763   1.798   3.177 -0.3677 -0.3599 -0.1599
   93UNL      C  582   2.639   1.925   3.220  0.2810 -0.2619 -0.2617
   93UNL    CL1  583   2.566   1.907   3.376 -0.3306  0.3171 -0.0378
   93UNL    CL2  584   2.718   2.087   3.198  0.4961 -0.3765  0.0026
   93UNL      H  585   2.562   1.921   3.142  0.2741 -2.6581 -0.1884
   94UNL     CL  586   2.630   1.889   3.770 -0.0145 -0.1867  0.4505
   94UNL      C  587   2.606   1.811   3.932  0.2960 -0.0961  0.3321
   94UNL    CL1  588   2.485   1.896   4.032  0.3424  0.1334 -0.4084
   94UNL    CL2  589   2.563   1.641   3.899  0.2631  0.3567 -0.0111
   94UNL      H  590   2.699   1.790   3.986 -0.6605 -3.4343  0.9564
   95UNL     CL  591   2.260   3.774   3.341  0.2525  0.2470  0.1999
   95UNL      C  592   2.319   3.944   3.335  0.1806 -0.6518  0.3172
   95UNL    CL1  593   2.350   4.005   3.504  0.2164  0.2258  0.0782
   95UNL    CL2  594   2.465   3.949   3.242  0.1381 -0.3444 -0.0552
   95UNL      H  595   2.244   4.003   3.280  0.3171 -0.9851 -0.2395
   96UNL     CL  596   0.328   0.733   0.515 -0.1241 -0.1642 -0.0838
   96UNL      C  597   0.287   0.907   0.541 -0.4070  0.3159 -0.0421
   96UNL    CL1  598   0.409   0.991   0.645 -0.0488  0.1360 -0.0692
   96UNL    CL2  599   0.260   0.991   0.384  0.1639  0.2124  0.8792
   96UNL      H  600   0.201   0.913   0.608  0.4848 -1.8545  1.4112
   97UNL     CL  601   2.509   3.396   3.687 -0.0476 -0.1468  0.1005
   97UNL      C  602   2.359   3.323   3.636  0.5612 -0.3694 -0.2240
   97UNL    CL1  603   2.229   3.280   3.766  0.2018 -0.4111  0.2595
   97UNL    CL2  604   2.287   3.430   3.505  0.1380 -0.4265  0.0274
   97UNL      H  605   2.384   3.230   3.583 -1.6040 -1.0970 -0.0604
   98UNL     CL  606   1.845   1.096   2.959 -0.0236  0.3298  0.1113
   98UNL      C  607   1.710   1.028   3.063 -0.0813  0.5857  0.0003
   98UNL    CL1  608   1.566   1.033   2.958  0.1976  0.0136  0.1128
   98UNL    CL2  609   1.743   0.852   3.106 -0.4501 -0.3933  0.2312
   98UNL      H  610   1.699   1.081   3.158 -0.4708 -0.4070  0.5264
   99UNL     CL  611   3.654   0.959   2.063 -0.0941  0.1809  0.2445
   99UNL      C  612   3.573   0.872   2.207 -0.2243 -0.2862 -1.1441
   99UNL    CL1  613   3.461   0.738   2.146 -0.0716 -0.4457 -0.1672
   99UNL    CL2  614   3.700   0.813   2.317  0.5946 -0.1001  0.0062
   99UNL      H  615   3.508   0.938   2.265  1.1473  2.0179 -2.0836
  100UNL     CL  616   3.449   1.023   1.152 -0.2272 -0.3632  0.0048
  100UNL      C  617   3.586   0.965   1.256  0.1868 -0.3847 -0.6448
  100UNL    CL1  618   3.603   1.067   1.412 -0.0999  0.2514 -0.2738
  100UNL    CL2  619   3.551   0.798   1.312 -0.2226  0.0526 -0.0310
  100UNL      H  620   3.677   0.975   1.196  0.1663 -1.5837 -0.8979
  101UNL     CL  621   2.873   2.529   0.129 -0.2781  0.0406 -0.2043
  101UNL      C  622   3.041   2.564   0.179 -0.1143 -0.2311 -0.7902
  101UNL    CL1  623   3.068   2.465   0.335 -0.6391 -0.6205 -0.0270
  101UNL    CL2  624   3.152   2.482   0.067  0.2685  0.2097 -0.0915
  101UNL      H  625   3.068   2.669   0.194  0.3876 -0.0329 -2.8464
  102UNL     CL  626   1.080   3.597   2.308 -0.0793  0.0924 -0.2602
  102UNL      C  627   1.049   3.581   2.126 -0.7147  0.2140  0.5056
  102UNL    CL1  628   1.192   3.493   2.049  0.5980 -0.0167  0.0753
  102UNL    CL2  629   0.896   3.503   2.081  0.0639 -0.0637 -0.6021
  102UNL      H  630   1.047   3.684   2.088  0.8755 -1.3695 -4.6594
  103UNL     CL  631   3.840   0.314   0.568  0.2296  0.1917 -0.5835
  103UNL      C  632   3.694   0.228   0.512 -0.3510 -0.1763 -0.1022
  103UNL    CL1  633   3.640   0.107   0.644  0.0344 -0.0322  0.0749
  103UNL    CL2  634   3.565   0.344   0.474  0.1818  0.2956  0.1842
  103UNL      H  635   3.721   0.176   0.419  2.7919  2.1502 -0.6631
  104UNL     CL  636   0.445   1.356   3.143  0.3609  0.2542 -0.0284
  104UNL      C  637   0.527   1.507   3.085 -0.2587 -0.3089  0.5649
  104UNL    CL1  638   0.473   1.639   3.186  0.0300 -0.0394  0.3828
  104UNL    CL2  639   0.703   1.493   3.105  0.1775  0.1590  0.0462
  104UNL      H  640   0.488   1.511   2.982  1.3992 -0.0148 -0.0890
  105UNL     CL  641   0.605   1.854   2.842  0.6001 -0.0391  0.4846
  105UNL      C  642   0.614   1.961   2.701 -0.1070 -0.1621  0.4513
  105UNL    CL1  643   0.622   1.874   2.539  0.5445  0.2261 -0.0346
  105UNL    CL2  644   0.467   2.079   2.695  0.2910  0.4290  0.2003
  105UNL      H  645   0.700   2.025   2.721 -1.8126  2.4118  0.1000
  106UNL     CL  646   2.217   2.244   0.633  0.0721  0.1309  0.0292
  106UNL      C  647   2.069   2.158   0.682  0.5764  0.2308 -0.3806
  106UNL    CL1  648   2.066   2.131   0.855  0.1719  0.1910  0.0967
  106UNL    CL2  649   1.931   2.268   0.634  0.3519 -0.1760 -0.0073
  106UNL      H  650   2.049   2.066   0.627  2.0927 -1.2945  1.5082
  107UNL     CL  651   0.113   0.662   2.195  0.0443 -0.0539  0.0389
  107UNL      C  652   0.114   0.506   2.120  0.8522  0.3574 -0.1531
  107UNL    CL1  653   0.120   0.375   2.240 -0.0959  0.0867 -0.0210
  107UNL    CL2  654  -0.049   0.487   2.027  0.2142  0.0817 -0.0523
  107UNL      H  655   0.203   0.494   2.058  1.6757 -1.1607  1.2731
  108UNL     CL  656   2.553   2.741   2.399  0.3266 -0.0156  0.2130
  108UNL      C  657   2.414   2.642   2.454 -0.0785  0.0000  0.0555
  108UNL    CL1  658   2.417   2.628   2.636 -0.2749  0.1976 -0.2072
  108UNL    CL2  659   2.251   2.708   2.399  0.4838  0.0641  0.1213
  108UNL      H  660   2.418   2.540   2.413 -0.8745 -0.0743  0.1394
  109UNL     CL  661   0.372   0.205   0.673 -0.1749  0.3525  0.0070
  109UNL      C  662   0.323   0.046   0.604  0.1062 -0.2417 -0.0819
  109UNL    CL1  663   0.471  -0.040   0.537 -0.1307  0.1193  0.3102
  109UNL    CL2  664   0.251  -0.060   0.736  0.1344 -0.0122 -0.1608
  109UNL      H  665   0.242   0.053   0.531 -0.5590  1.8696  0.8026
  110UNL     CL  666   3.183   2.838   3.845 -0.0217 -0.1745 -0.3050
  110UNL      C  667   3.151   2.973   3.738  0.1752  0.2502  0.0872
  110UNL    CL1  668   3.192   3.131   3.802  0.0806 -0.1780  0.6261
  110UNL    CL2  669   3.244   2.969   3.590  0.1057  0.2769  0.0825
  110UNL      H  670   3.043   2.974   3.718  0.4620  0.4523 -1.5916
  111UNL     CL  671   3.484   2.456   0.766  0.2071  0.6410  0.0144
  111UNL      C  672   3.502   2.301   0.684 -0.4666  0.1895  0.1238
  111UNL    CL1  673   3.596   2.321   0.525 -0.1491  0.1350 -0.1114
  111UNL    CL2  674   3.606   2.205   0.779  0.2654 -0.0870  0.2548
  111UNL      H  675   3.404   2.253   0.678 -0.1713 -0.4315  0.2153
  112UNL     CL  676   1.378   2.023   2.344  0.5279  0.1064  0.2063
  112UNL      C  677   1.485   1.890   2.405 -1.0004  0.1593 -0.7118
  112UNL    CL1  678   1.530   1.784   2.267 -0.0835 -0.3853  0.4146
  112UNL    CL2  679   1.629   1.955   2.495  0.0539  0.2700 -0.6571
  112UNL      H  680   1.439   1.820   2.476  1.1077 -1.4956 -0.8573
  113UNL     CL  681   0.389   3.347   0.196 -0.0477 -0.3004 -0.2918
  113UNL      C  682   0.575   3.393   0.159  0.1482  0.0778  0.4320
  113UNL    CL1  683   0.662   3.235   0.154 -0.0799 -0.2553  0.0111
  113UNL    CL2  684   0.602   3.491   0.016  0.0628 -0.1832  0.2404
  113UNL      H  685   0.603   3.439   0.253  0.0053 -0.3637  0.6960
  114UNL     CL  686   0.072   3.480   1.870 -0.0200  0.2715  0.2298
  114UNL      C  687   0.194   3.560   1.763 -0.3579  0.0518  1.2153
  114UNL    CL1  688   0.158   3.741   1.748 -0.0897 -0.4324  0.4538
  114UNL    CL2  689   0.357   3.538   1.841 -0.1153 -0.0518 -0.4768
  114UNL      H  690   0.189   3.503   1.670  0.9388  0.6415  0.7620
  115UNL     CL  691   0.054   1.221   3.478  0.0477  0.0714  0.2581
  115UNL      C  692   0.213   1.212   3.391  0.8446  0.0197  0.1566
  115UNL    CL1  693   0.303   1.073   3.448  0.4459 -0.3157 -0.1201
  115UNL    CL2  694   0.183   1.185   3.215 -0.1361  0.1959  0.2891
  115UNL      H  695   0.272   1.302   3.409  0.6181  0.1189  0.4075
  116UNL     CL  696   3.112   0.324   2.943  0.2932  0.0876 -0.0109
  116UNL      C  697   3.075   0.172   3.032  0.2264 -0.3256  0.1177
  116UNL    CL1  698   3.112   0.192   3.211 -0.5162  0.7701  0.1308
  116UNL    CL2  699   2.904   0.150   3.022 -0.0427  0.4248 -0.2539
  116UNL      H  700   3.128   0.091   2.981 -0.8951  0.3447 -2.2830
  117UNL     CL  701   1.923   1.260   3.331 -0.1589 -0.0697 -0.0506
  117UNL      C  702   1.911   1.400   3.442  0.5520  0.1054 -0.5151
  117UNL    CL1  703   2.041   1.511   3.413 -0.0876 -0.2354 -0.1076
  117UNL    CL2  704   1.757   1.486   3.421 -0.0151  0.0929 -0.4600
  117UNL      H  705   1.917   1.354   3.541 -1.6803 -1.1793 -0.9146
  118UNL     CL  706   2.070   0.602   3.531  0.1236  0.0711  0.3569
  118UNL      C  707   2.233   0.614   3.588 -0.1846 -0.6973 -0.0909
  118UNL    CL1  708   2.296   0.457   3.624  0.0162  0.1610  0.0555
  118UNL    CL2  709   2.346   0.701   3.463  0.1582  0.1780 -0.0472
  118UNL      H  710   2.229   0.676   3.678 -0.5388 -1.8739  0.7279
  119UNL     CL  711   0.837   2.288   3.480  0.0538 -0.2549 -0.1304
  119UNL      C  712   0.707   2.373   3.556 -0.1229  0.3879 -0.1785
  119UNL    CL1  713   0.654   2.303   3.710 -0.1497 -0.1889 -0.2109
  119UNL    CL2  714   0.755   2.548   3.581 -0.1071 -0.0692 -0.0239
  119UNL      H  715   0.621   2.368   3.488  0.0223 -0.8641 -0.2920
  120UNL     CL  716   0.560   1.419   2.482  0.0202 -0.0131  0.3367
  120UNL      C  717   0.618   1.256   2.440  0.3658 -0.3046 -0.1156
  120UNL    CL1  718   0.784   1.232   2.500 -0.2356  0.4952 -0.4083
  120UNL    CL2  719   0.511   1.119   2.494 -0.1703  0.3866  0.2580
  120UNL      H  720   0.617   1.247   2.331  1.4186  3.1725 -0.5627
  121UNL     CL  721   3.641   2.647   0.287  0.1020 -0.1971 -0.4203
  121UNL      C  722   3.508   2.747   0.346  1.0844 -0.7559  0.1451
  121UNL    CL1  723   3.353   2.684   0.289 -0.1555 -0.5621  0.0954
  121UNL    CL2  724   3.509   2.763   0.529  0.1754 -0.3699  0.1452
  121UNL      H  725   3.517   2.845   0.298 -0.8118 -0.4910  0.2322
  122UNL     CL  726   0.986   0.885   1.701 -0.6227  0.1333  0.2436
  122UNL      C  727   1.147   0.839   1.778 -0.4231 -0.1811  0.2688
  122UNL    CL1  728   1.157   0.659   1.780 -0.0221  0.1826  0.1041
  122UNL    CL2  729   1.285   0.909   1.689  0.0687  0.6079  0.1945
  122UNL      H  730   1.148   0.875   1.882  2.2784 -0.5475  0.4544
  123UNL     CL  731   0.904   0.320   1.442  0.0126  0.0026 -0.4280
  123UNL      C  732   0.741   0.341   1.364  0.3711 -0.8639 -0.2502
  123UNL    CL1  733   0.759   0.375   1.187 -0.2003  0.5191  0.3134
  123UNL    CL2  734   0.660   0.189   1.388 -0.0092 -0.0921 -0.3349
  123UNL      H  735   0.682   0.417   1.416 -0.4745 -0.2781 -1.9911
  124UNL     CL  736   2.862   0.345   0.158  0.1011 -0.1612 -0.0207
  124UNL      C  737   2.705   0.330   0.243 -0.5429  0.4323  0.2305
  124UNL    CL1  738   2.596   0.483   0.211 -0.2016 -0.3228  0.3020
  124UNL    CL2  739   2.630   0.173   0.185  0.0101  0.1255 -0.0509
  124UNL      H  740   2.733   0.316   0.348  0.6654 -1.7325 -0.3200
  125UNL     CL  741   2.505   3.374   0.906 -0.2495  0.1238 -0.0579
  125UNL      C  742   2.327   3.345   0.861  0.7398  0.5433 -0.0059
  125UNL    CL1  743   2.235   3.366   1.009 -0.0518  0.1421 -0.2877
  125UNL    CL2  744   2.273   3.460   0.732  0.0548 -0.0450  0.5863
  125UNL      H  745   2.320   3.240   0.831  2.6313  0.3771  0.0678
  126UNL     CL  746   1.225   1.190   3.149  0.4938 -0.2207  0.0891
  126UNL      C  747   1.318   1.338   3.125 -0.4821 -0.1013  0.4631
  126UNL    CL1  748   1.484   1.314   3.195  0.5995 -0.2181 -0.3164
  126UNL    CL2  749   1.337   1.367   2.946  0.3770  0.0829 -0.2657
  126UNL      H  750   1.276   1.424   3.177 -1.7982  0.4752 -1.4606
  127UNL     CL  751   2.875   3.721   0.451  0.2363  0.2065 -0.3742
  127UNL      C  752   2.929   3.562   0.500 -0.9302 -0.5951 -0.1852
  127UNL    CL1  753   3.106   3.572   0.524  0.3969 -0.0869 -0.0209
  127UNL    CL2  754   2.846   3.518   0.653 -0.3098  0.0930 -0.1960
  127UNL      H  755   2.908   3.496   0.415  2.7952 -0.7375 -1.1630
  128UNL     CL  756   0.302   1.259   1.443  0.1688  0.1977 -0.3049
  128UNL      C  757   0.470   1.218   1.374  0.1182  0.9213 -0.3223
  128UNL    CL1  758   0.480   1.040   1.327 -0.3049 -0.1578 -0.7062
  128UNL    CL2  759   0.524   1.319   1.236 -0.2876  0.1205 -0.0284
  128UNL      H  760   0.538   1.223   1.460 -0.5012 -0.3122  0.2623
  129UNL     CL  761   1.090   0.955   0.525  0.0075 -0.3294  0.0821
  129UNL      C  762   1.145   0.918   0.695 -0.1044 -0.1381 -0.5162
  129UNL    CL1  763   1.248   0.771   0.680 -0.1362  0.1056  0.3053
  129UNL    CL2  764   1.226   1.067   0.757 -0.1596 -0.2634  0.0816
  129UNL      H  765   1.059   0.890   0.757  0.9310 -2.5134 -0.0667
  130UNL     CL  766   0.157   3.277   1.602  0.1762  0.1478 -0.2146
  130UNL      C  767   0.152   3.163   1.469  0.4921  0.3101 -1.0376
  130UNL    CL1  768   0.010   3.056   1.486  0.0008 -0.3261 -0.3998
  130UNL    CL2  769   0.180   3.245   1.309 -0.2114 -0.0662 -0.1006
  130UNL      H  770   0.249   3.112   1.473 -0.2700 -1.4166 -2.6693
  131UNL     CL  771   2.971   1.147   0.069 -0.0126  0.2341 -0.0508
  131UNL      C  772   3.155   1.153   0.016  0.2334 -0.2650  0.7031
  131UNL    CL1  773   3.174   1.248  -0.138  0.0322 -0.0581 -0.2319
  131UNL    CL2  774   3.257   1.234   0.141  0.0622 -0.0842  0.4795
  131UNL      H  775   3.193   1.051   0.003  0.4005 -0.0040 -1.1363
  132UNL     CL  776   0.133   2.764   0.349  0.3192  0.1108  0.0640
  132UNL      C  777   0.236   2.869   0.453 -0.3170 -0.1951  0.5304
  132UNL    CL1  778   0.295   3.015   0.363 -0.2315  0.0783  0.0846
  132UNL    CL2  779   0.134   2.928   0.585  0.1977  0.0891  0.0137
  132UNL      H  780   0.325   2.820   0.493 -1.0203 -1.7243  0.2603
  133UNL     CL  781   1.239   0.343   0.617 -0.0780  0.1722 -0.0759
  133UNL      C  782   1.068   0.334   0.668 -0.0472 -0.4523  0.1869
  133UNL    CL1  783   0.980   0.243   0.547 -0.3123 -0.2488  0.0686
  133UNL    CL2  784   1.061   0.247   0.815 -0.0584  0.3994  0.3273
  133UNL      H  785   1.011   0.427   0.669  0.8717  0.1409  1.6539
  134UNL     CL  786   2.475   0.205   0.686  0.2117  0.2955  0.0840
  134UNL      C  787   2.493   0.055   0.600 -0.1733  0.1932  0.0084
  134UNL    CL1  788   2.639   0.078   0.501 -0.5161  0.1764  0.0253
  134UNL    CL2  789   2.517  -0.079   0.716  0.0727 -0.6586  0.0550
  134UNL      H  790   2.410   0.036   0.531  0.7637 -1.2208 -0.7716
  135UNL     CL  791   1.381   1.478   2.502  0.0491 -0.0908 -0.0844
  135UNL      C  792   1.428   1.576   2.651  0.2825  0.4752  0.3186
  135UNL    CL1  793   1.584   1.664   2.620 -0.2563  0.2958 -0.1820
  135UNL    CL2  794   1.302   1.696   2.669  0.0178  0.4691 -0.2410
  135UNL      H  795   1.428   1.517   2.743 -0.4592  1.3857  0.9225
  136UNL     CL  796   3.633   1.867   0.714  0.0423 -0.2643  0.0428
  136UNL      C  797   3.749   1.811   0.593  0.3261 -0.6609  0.6568
  136UNL    CL1  798   3.917   1.871   0.626 -0.2603  0.1737 -0.0039
  136UNL    CL2  799   3.743   1.634   0.586 -0.2829  0.0876  0.1292
  136UNL      H  800   3.723   1.844   0.491 -1.2145  0.1698  1.2870
  137UNL     CL  801   2.619   0.288   3.009 -0.0696 -0.0271  0.0799
  137UNL      C  802   2.603   0.376   2.843 -0.7701  0.1743  0.1740
  137UNL    CL1  803   2.456   0.334   2.756  0.0263 -0.1424 -0.2248
  137UNL    CL2  804   2.584   0.554   2.856 -0.0053  0.0424  0.3087
  137UNL      H  805   2.692   0.343   2.788 -0.3100  1.0270  0.3833
  138UNL     CL  806   0.651   2.670   1.346 -0.3536 -0.0270 -0.8564
  138UNL      C  807   0.703   2.618   1.185 -0.2667  0.5558 -0.6561
  138UNL    CL1  808   0.572   2.508   1.126  0.2464 -0.0248 -0.3227
  138UNL    CL2  809   0.726   2.766   1.085  0.0833 -0.4166 -0.3767
  138UNL      H  810   0.795   2.558   1.190 -1.1833 -0.8190  1.0505
  139UNL     CL  811   0.005   1.797   2.007 -0.3017 -0.2666 -0.1748
  139UNL      C  812  -0.134   1.907   1.956  0.3705 -0.3149 -0.1822
  139UNL    CL1  813  -0.092   2.030   1.841 -0.4776 -0.1319 -0.0190
  139UNL    CL2  814  -0.280   1.816   1.900  0.2328  0.2990 -0.0106
  139UNL      H  815  -0.164   1.957   2.049 -0.9941  0.3170 -0.9458
  140UNL     CL  816   3.775   1.179   1.710  0.2797  0.1325 -0.2302
  140UNL      C  817   3.953   1.227   1.742 -0.2396  0.5326  0.3002
  140UNL    CL1  818   3.968   1.333   1.889 -0.1389  0.2474  0.0083
  140UNL    CL2  819   4.057   1.081   1.745  0.0857 -0.5683  0.3146
  140UNL      H  820   3.979   1.296   1.661 -0.3198  0.8589  0.5544
  141UNL     CL  821   3.469   2.977   2.807  0.1173  0.0479  0.0258
  141UNL      C  822   3.359   3.083   2.718  0.0035 -0.7521  0.2219
  141UNL    CL1  823   3.337   3.232   2.823  0.2118 -0.2839 -0.0609
  141UNL    CL2  824   3.423   3.140   2.551  0.3586  0.5385  0.0653
  141UNL      H  825   3.262   3.031   2.714  0.2406 -1.5314  2.8231
  142UNL     CL  826   1.690   0.522   3.559  0.3037 -0.1086  0.1398
  142UNL      C  827   1.557   0.576   3.662 -0.3149  0.3876  0.2771
  142UNL    CL1  828   1.601   0.528   3.834  0.1961 -0.3182 -0.3545
  142UNL    CL2  829   1.532   0.759   3.659 -0.1886  0.0016  0.0386
  142UNL      H  830   1.470   0.517   3.632  0.8399 -0.0312 -2.6055
  143UNL     CL  831   3.232   1.619   0.121  0.1409 -0.0786  0.1126
  143UNL      C  832   3.076   1.633   0.040  0.2700  0.1763  0.2449
  143UNL    CL1  833   3.002   1.785   0.093  0.6608 -0.5218 -0.4146
  143UNL    CL2  834   3.102   1.636  -0.132  0.1599  0.0819  0.3709
  143UNL      H  835   3.008   1.549   0.057 -3.0564  2.3153 -1.3139
  144UNL     CL  836   3.647   1.188   3.062 -0.1070  0.0315  0.3289
  144UNL      C  837   3.661   1.004   3.101 -0.1047 -0.3304 -0.2971
  144UNL    CL1  838   3.651   0.985   3.277  0.0196 -0.3584 -0.0047
  144UNL    CL2  839   3.531   0.918   3.015 -0.5418  0.1116 -0.5467
  144UNL      H  840   3.759   0.970   3.065  0.0206  0.4270 -0.6996
  145UNL     CL  841   0.281   1.483   0.684 -0.0447  0.4884  0.1670
  145UNL      C  842   0.430   1.435   0.785 -0.5144 -0.3924  0.5954
  145UNL    CL1  843   0.514   1.576   0.828 -0.5363 -0.1105  0.1355
  145UNL    CL2  844   0.387   1.328   0.928 -0.3698  0.2999  0.1920
  145UNL      H  845   0.486   1.382   0.707  1.4790  1.2140  0.8421
  146UNL     CL  846   1.037   1.352   2.700 -0.3729  0.0665 -0.1550
  146UNL      C  847   0.952   1.490   2.773  0.4911 -0.0183 -0.0488
  146UNL    CL1  848   1.029   1.535   2.925  0.1310 -0.1503  0.0176
  146UNL    CL2  849   0.974   1.645   2.675 -0.0585 -0.0931  0.1083
  146UNL      H  850   0.846   1.478   2.796  0.3979  2.3118  0.9597
  147UNL     CL  851   0.088   1.931   2.956 -0.4097 -0.5432  0.0854
  147UNL      C  852  -0.047   2.045   2.912  0.3101 -0.0579  0.5203
  147UNL    CL1  853  -0.140   1.983   2.770 -0.0917 -0.3586  0.3173
  147UNL    CL2  854  -0.167   2.068   3.052  0.1319 -0.0129  0.1557
  147UNL      H  855  -0.006   2.143   2.889  0.1617 -0.0206  0.4139
  148UNL     CL  856   2.042   0.467   1.154 -0.2580  0.0955 -0.0274
  148UNL      C  857   2.048   0.443   0.975 -0.4213 -0.2241  0.0963
  148UNL    CL1  858   2.063   0.590   0.883 -0.0456 -0.2951 -0.3623
  148UNL    CL2  859   2.181   0.336   0.931  0.6882  0.0528 -0.0706
  148UNL      H  860   1.958   0.384   0.953 -0.4432 -1.1668  2.4244
  149UNL     CL  861   1.922   2.337   2.894  0.0548  0.2040  0.3802
  149UNL      C  862   1.852   2.513   2.890  0.3804  0.2641 -0.3190
  149UNL    CL1  863   1.738   2.531   2.754 -0.1055 -0.5433  0.2938
  149UNL    CL2  864   1.763   2.555   3.040  0.3449  0.0905 -0.2617
  149UNL      H  865   1.935   2.581   2.871 -0.3083  1.3852  0.5247
  150UNL     CL  866   3.246   3.025   1.392 -0.0968 -0.3077  0.0703
  150UNL      C  867   3.264   3.102   1.232 -0.0185 -0.3922 -0.0178
  150UNL    CL1  868   3.281   2.976   1.099 -0.0904 -0.3723 -0.6424
  150UNL    CL2  869   3.107   3.177   1.194 -0.4925 -0.1851  0.1382
  150UNL      H  870   3.352   3.167   1.233 -0.3106 -0.0046  0.3726
  151UNL     CL  871   0.805   3.304   1.335  0.0890  0.1692 -0.0930
  151UNL      C  872   0.674   3.223   1.251 -0.0562 -0.4990 -0.2579
  151UNL    CL1  873   0.536   3.157   1.355 -0.1724  0.1075  0.0192
  151UNL    CL2  874   0.614   3.343   1.124  0.3155 -0.3218  0.2020
  151UNL      H  875   0.715   3.137   1.197 -1.7648 -1.4135 -0.1841
  152UNL     CL  876   0.897   1.745   0.812  0.1048  0.4831 -0.2903
  152UNL      C  877   1.058   1.722   0.879 -0.4708 -0.1480  0.1396
  152UNL    CL1  878   1.188   1.793   0.766 -0.2126  0.0184 -0.2610
  152UNL    CL2  879   1.078   1.799   1.044 -0.1569 -0.1240  0.0638
  152UNL      H  880   1.072   1.614   0.888 -1.1155 -0.5381 -2.6041
  153UNL     CL  881   0.377   0.269   1.623 -0.7106  0.1455 -0.1146
  153UNL      C  882   0.294   0.369   1.752 -0.9433  0.4197 -0.2098
  153UNL    CL1  883   0.153   0.454   1.681  0.0699  0.1590 -0.2332
  153UNL    CL2  884   0.276   0.277   1.903 -0.1041  0.1073 -0.6077
  153UNL      H  885   0.364   0.449   1.777  0.8068 -0.5915 -1.5606
  154UNL     CL  886   2.116   1.913   3.574 -0.0981  0.1388 -0.1197
  154UNL      C  887   2.099   1.760   3.659  0.0546  0.0167 -0.3208
  154UNL    CL1  888   2.161   1.773   3.816 -0.1586 -0.4069  0.0121
  154UNL    CL2  889   1.929   1.724   3.660  0.0571 -0.7305 -0.7440
  154UNL      H  890   2.162   1.685   3.610  2.3856 -0.2487  2.7712
  155UNL     CL  891   2.014   3.566   2.863  0.1019 -0.5755  0.2235
  155UNL      C  892   2.152   3.601   2.972 -0.1464  0.1246  0.3675
  155UNL    CL1  893   2.224   3.448   3.017  0.1169  0.3049 -0.0161
  155UNL    CL2  894   2.284   3.705   2.907 -0.0775 -0.0514  0.0257
  155UNL      H  895   2.106   3.647   3.059  0.6626  2.2338 -0.2530
  156UNL     CL  896   3.806   1.628   1.182  0.2293  0.3591  0.3238
  156UNL      C  897   3.866   1.504   1.057 -0.1055 -0.4993  0.1650
  156UNL    CL1  898   3.866   1.344   1.132  0.2434  0.0623 -0.0558
  156UNL    CL2  899   3.763   1.518   0.922  0.0532 -0.2703  0.1229
  156UNL      H  900   3.969   1.521   1.022  0.9526 -2.8190  1.8970
  157UNL     CL  901   1.497   3.669   2.329  0.0177  0.0049  0.3370
  157UNL      C  902   1.404   3.756   2.440 -0.3031  0.7667 -0.5884
  157UNL    CL1  903   1.386   3.662   2.603  0.7829 -0.3063  0.2556
  157UNL    CL2  904   1.476   3.916   2.472 -0.1082  0.0157 -0.0978
  157UNL      H  905   1.304   3.776   2.401 -0.4999  0.2594 -0.3552
  158UNL     CL  906   0.417   3.244   2.330  0.1937  0.1006 -0.0342
  158UNL      C  907   0.514   3.369   2.252 -0.3385 -0.2947 -0.2469
  158UNL    CL1  908   0.645   3.405   2.366 -0.5395  0.2798 -0.0589
  158UNL    CL2  909   0.601   3.307   2.097 -0.2356  0.1978 -0.0999
  158UNL      H  910   0.457   3.459   2.228 -1.1352 -0.2923  1.4806
  159UNL     CL  911   1.483   1.845   1.236  0.2403 -0.0475  0.5213
  159UNL      C  912   1.597   1.737   1.317  1.0783 -0.4176 -0.4079
  159UNL    CL1  913   1.735   1.704   1.204 -0.4398 -0.0920  0.2522
  159UNL    CL2  914   1.660   1.822   1.454  0.2188 -0.0674  0.1941
  159UNL      H  915   1.550   1.641   1.342 -1.4336  0.7820 -0.1471
  160UNL     CL  916   2.798   0.672   1.823 -0.1138 -0.1316  0.1665
  160UNL      C  917   2.749   0.854   1.831 -0.0796  0.1240 -0.2481
  160UNL    CL1  918   2.671   0.891   1.680  0.1855 -0.0159  0.5420
  160UNL    CL2  919   2.644   0.878   1.968  0.0571  0.3443 -0.2798
  160UNL      H  920   2.832   0.925   1.835  1.7988 -1.7030 -2.8367
  161UNL     CL  921   0.588   0.886   3.447 -0.1724  0.1366 -0.1670
  161UNL      C  922   0.712   0.992   3.365  0.4093 -0.3083  0.2114
  161UNL    CL1  923   0.673   1.169   3.359 -0.1519 -0.2163  0.1050
  161UNL    CL2  924   0.883   0.969   3.421 -0.0343  0.0640 -0.1875
  161UNL      H  925   0.699   0.965   3.259 -0.9449  0.2377  0.2245
  162UNL     CL  926   2.230   0.505   3.027 -0.1266  0.1749  0.0434
  162UNL      C  927   2.106   0.635   3.040 -0.1413  0.1960 -0.2065
  162UNL    CL1  928   2.055   0.669   3.211 -0.0536  0.0972  0.0103
  162UNL    CL2  929   2.158   0.786   2.954  0.3870  0.1849  0.0384
  162UNL      H  930   2.024   0.592   2.982 -0.7876  0.2318  0.6570
  163UNL     CL  931   3.058   2.458   2.332  0.1652 -0.0943 -0.2970
  163UNL      C  932   2.944   2.331   2.382  0.5528  0.1160  0.0149
  163UNL    CL1  933   3.034   2.235   2.498  0.2657 -0.5537 -0.2362
  163UNL    CL2  934   2.792   2.416   2.448  0.0905 -0.0668 -0.3080
  163UNL      H  935   2.911   2.264   2.302 -1.9582 -0.1099  1.1399
  164UNL     CL  936   1.302   1.087   2.646  0.2848  0.4191  0.0254
  164UNL      C  937   1.187   0.982   2.552 -0.2960  0.5275  0.7520
  164UNL    CL1  938   1.073   0.909   2.665 -0.3196  0.1217 -0.1256
  164UNL    CL2  939   1.103   1.099   2.430 -0.1252  0.0270  0.4179
  164UNL      H  940   1.246   0.901   2.510  0.7567  0.7642  1.7277
  165UNL     CL  941   3.233   0.118   1.447 -0.3456  0.2319  0.0191
  165UNL      C  942   3.096   0.026   1.367  0.4846 -0.0463  0.4794
  165UNL    CL1  943   3.041  -0.106   1.475 -0.1469  0.2962  0.1358
  165UNL    CL2  944   2.968   0.156   1.331  0.5076  0.1358  0.3928
  165UNL      H  945   3.126  -0.019   1.272 -0.1627 -0.1344  0.3099
  166UNL     CL  946   3.541   1.492   3.676  0.3160  0.5746 -0.0195
  166UNL      C  947   3.445   1.451   3.527 -0.5669 -0.0213  0.1545
  166UNL    CL1  948   3.506   1.551   3.380 -0.0710 -0.1074 -0.0879
  166UNL    CL2  949   3.481   1.281   3.482 -0.1663  0.1675  0.3216
  166UNL      H  950   3.337   1.465   3.542 -0.4634  0.2479  0.6577
  167UNL     CL  951   0.751   3.752   0.822 -0.1472  0.0087  0.2623
  167UNL      C  952   0.644   3.880   0.877  0.1722 -0.8842 -0.3158
  167UNL    CL1  953   0.518   3.828   0.991 -0.9485 -0.3777 -0.0673
  167UNL    CL2  954   0.748   4.010   0.947 -0.0420 -0.2411 -0.2031
  167UNL      H  955   0.592   3.926   0.792  0.0807 -0.0737  0.1717
  168UNL     CL  956   0.239   3.634   2.259  0.3607  0.5540  0.0179
  168UNL      C  957   0.209   3.781   2.353  0.6147  0.5559  0.2269
  168UNL    CL1  958   0.258   3.926   2.265  0.6354  0.3027  0.4792
  168UNL    CL2  959   0.022   3.806   2.375 -0.0671  0.1312 -0.2964
  168UNL      H  960   0.267   3.768   2.445 -1.6030  0.2817  1.6590
  169UNL     CL  961   3.098   2.580   0.906  0.1294  0.0213  0.0147
  169UNL      C  962   3.053   2.643   0.741  0.3500 -0.5343  0.2358
  169UNL    CL1  963   3.162   2.570   0.618 -0.0160  0.2072 -0.1557
  169UNL    CL2  964   2.877   2.619   0.732  0.1687  0.1203 -0.0574
  169UNL      H  965   3.066   2.751   0.754 -0.3144 -0.5737  1.4053
  170UNL     CL  966   1.141   2.652   3.749 -0.2880  0.6447 -0.1131
  170UNL      C  967   1.102   2.818   3.786 -0.3275  0.1200 -0.3924
  170UNL    CL1  968   1.240   2.920   3.733 -0.0525  0.3554 -0.1338
  170UNL    CL2  969   0.970   2.883   3.685  0.0515 -0.0984  0.1077
  170UNL      H  970   1.083   2.837   3.892 -0.0041  1.8690 -0.6240
  171UNL     CL  971   0.154   3.553   0.445 -0.0115  0.1444 -0.3556
  171UNL      C  972  -0.010   3.613   0.493  0.2184  0.8251 -0.5116
  171UNL    CL1  973  -0.016   3.776   0.411  0.2464  0.2340  0.3787
  171UNL    CL2  974  -0.139   3.501   0.423 -0.3368 -0.1336 -0.3585
  171UNL      H  975  -0.023   3.626   0.601  2.4419  0.1326 -0.1138
  172UNL     CL  976   2.410   2.306   0.254  0.1381  0.3141 -0.0494
  172UNL      C  977   2.361   2.472   0.188  0.0376 -0.1727 -0.0204
  172UNL    CL1  978   2.494   2.528   0.085 -0.3357 -0.1618 -0.1607
  172UNL    CL2  979   2.220   2.447   0.075  0.2400  0.3879  0.3408
  172UNL      H  980   2.338   2.551   0.260 -0.1797 -0.0529 -0.2206
  173UNL     CL  981   1.542   1.068   2.238  0.3892 -0.2562 -0.6015
  173UNL      C  982   1.433   1.125   2.111 -0.3477  1.1071  0.4216
  173UNL    CL1  983   1.293   1.006   2.083 -0.4632 -0.3376  0.1107
  173UNL    CL2  984   1.366   1.283   2.149  0.0307 -0.3730 -0.3413
  173UNL      H  985   1.493   1.131   2.020 -1.0554 -0.6479 -0.1916
  174UNL     CL  986   3.767   1.917   3.325 -0.0415 -0.1394 -0.2133
  174UNL      C  987   3.886   1.836   3.423 -0.4424  0.2561 -0.0704
  174UNL    CL1  988   3.803   1.696   3.503  0.0159  0.2735 -0.1397
  174UNL    CL2  989   4.013   1.758   3.320  0.4217  0.1528  0.1595
  174UNL      H  990   3.931   1.910   3.490  0.5703  0.4933 -0.9875
  175UNL     CL  991   1.568   2.663   2.037  0.1302  0.1859  0.4657
  175UNL      C  992   1.557   2.717   2.207  0.1446 -0.0502 -0.4250
  175UNL    CL1  993   1.702   2.816   2.227  0.2069  0.2448 -0.1952
  175UNL    CL2  994   1.407   2.807   2.260  0.1338 -0.1115 -0.0271
  175UNL      H  995   1.576   2.631   2.273  2.8445 -0.2674 -1.3443
  176UNL     CL  996   0.601   2.016   3.482  0.0873  0.4749  0.3653
  176UNL      C  997   0.536   1.990   3.311  0.0870 -0.0855  0.1934
  176UNL    CL1  998   0.514   2.156   3.234 -0.1235  0.0814 -0.1797
  176UNL    CL2  999   0.658   1.900   3.229 -0.0920  0.1341  0.4077
  176UNL      H 1000   0.443   1.935   3.297  0.4929 -0.0336 -3.9817
  177UNL     CL 1001   2.815   3.207   0.759 -0.0802 -0.3044 -0.2232
  177UNL      C 1002   2.976   3.187   0.843 -0.2222 -0.2784 -0.1985
  177UNL    CL1 1003   3.064   3.043   0.798  0.0678 -0.0820  0.6320
  177UNL    CL2 1004   3.080   3.326   0.801 -0.1891 -0.4486 -0.1952
  177UNL      H 1005   2.955   3.180   0.951 -0.7999  0.8094 -0.2284
  178UNL     CL 1006   1.495   3.688   1.188 -0.1574  0.0173  0.0464
  178UNL      C 1007   1.575   3.852   1.206  0.2917 -0.0166  0.1298
  178UNL    CL1 1008   1.468   3.993   1.151 -0.3929 -0.1134 -0.0743
  178UNL    CL2 1009   1.622   3.870   1.373  0.0599 -0.1411 -0.0976
  178UNL      H 1010   1.671   3.850   1.153  0.6137 -0.7403  0.7268
  179UNL     CL 1011   3.601   3.749   3.246  0.0888  0.1086 -0.1899
  179UNL      C 1012   3.425   3.799   3.282  0.4690 -0.1519  0.5203
  179UNL    CL1 1013   3.421   3.979   3.300 -0.4135 -0.0803  0.1304
  179UNL    CL2 1014   3.316   3.759   3.131  0.4887 -0.3856 -0.1897
  179UNL      H 1015   3.382   3.750   3.370  1.3664  0.7194  1.4701
  180UNL     CL 1016   3.208   0.662   1.403 -0.4089  0.0724 -0.5211
  180UNL      C 1017   3.225   0.512   1.308  0.2666  0.2106  0.0390
  180UNL    CL1 1018   3.067   0.476   1.231  0.0387 -0.1850 -0.0519
  180UNL    CL2 1019   3.348   0.536   1.182  0.0381 -0.2857 -0.5729
  180UNL      H 1020   3.256   0.424   1.365  0.3104  0.3995  0.3077
  181UNL     CL 1021   2.552   3.049   2.154  0.1003 -0.0096  0.1103
  181UNL      C 1022   2.378   3.033   2.101 -0.2210 -0.2035 -0.1224
  181UNL    CL1 1023   2.290   2.974   2.243  0.0602 -0.3317 -0.6975
  181UNL    CL2 1024   2.329   3.205   2.065 -0.0396  0.2874  0.0565
  181UNL      H 1025   2.371   2.970   2.012 -0.7703 -1.6863  0.9287
  182UNL     CL 1026   1.959   3.140   2.504 -0.1310  0.1837  0.2597
  182UNL      C 1027   2.083   3.087   2.623  0.0694  0.4241 -0.1969
  182UNL    CL1 1028   2.071   3.210   2.756  0.7177 -0.1670  0.0991
  182UNL    CL2 1029   2.070   2.922   2.681 -0.1593  0.0687 -0.0386
  182UNL      H 1030   2.180   3.101   2.575  1.2904  1.9601  2.4816
  183UNL     CL 1031   0.153   0.299   1.269 -0.1807  0.3183  0.1546
  183UNL      C 1032   0.188   0.419   1.139 -0.0854 -0.2137  0.1272
  183UNL    CL1 1033   0.267   0.562   1.208  0.6668 -0.5125  0.3562
  183UNL    CL2 1034   0.293   0.353   1.005 -0.0342  0.2701 -0.1736
  183UNL      H 1035   0.099   0.456   1.086  0.5386  0.2007 -0.6418
  184UNL     CL 1036   1.786   0.286   3.073 -0.3668 -0.1328 -0.1326
  184UNL      C 1037   1.871   0.150   3.170 -0.2397 -0.0549 -0.9601
  184UNL    CL1 1038   1.995   0.068   3.054  0.0922  0.1568 -0.1553
  184UNL    CL2 1039   1.940   0.222   3.319 -0.2453 -0.4350 -0.0455
  184UNL      H 1040   1.809   0.073   3.216  0.6910 -0.4437 -0.3304
  185UNL     CL 1041   1.215   1.063   1.389 -0.5736 -0.1460 -0.1123
  185UNL      C 1042   1.106   0.956   1.292  0.0227 -0.0297  1.1617
  185UNL    CL1 1043   0.939   0.969   1.353 -0.0775  0.1574  0.2990
  185UNL    CL2 1044   1.107   1.008   1.117 -0.2700 -0.1220 -0.0473
  185UNL      H 1045   1.129   0.849   1.298  3.1157  0.2689 -2.4983
  186UNL     CL 1046   0.635   3.694   3.460  0.4713 -0.0447 -0.4047
  186UNL      C 1047   0.671   3.871   3.428  0.1084 -0.2063 -0.2622
  186UNL    CL1 1048   0.747   3.945   3.581 -0.5949 -0.0861  0.4669
  186UNL    CL2 1049   0.797   3.876   3.300 -0.1040 -0.2399 -0.4087
  186UNL      H 1050   0.576   3.920   3.403  0.5940  1.6459  1.2364
  187UNL     CL 1051   0.742   1.900   0.005 -0.2010  0.2149  0.1954
  187UNL      C 1052   0.794   2.011   0.142  0.2037  0.3134  0.0627
  187UNL    CL1 1053   0.903   1.920   0.252 -0.2384  0.0036  0.3760
  187UNL    CL2 1054   0.875   2.148   0.093  0.0053 -0.2281  0.1001
  187UNL      H 1055   0.702   2.034   0.197 -0.0846 -0.3151 -0.1512
  188UNL     CL 1056   1.112   3.664   1.764  0.1455  0.1049  0.0353
  188UNL      C 1057   1.172   3.549   1.638  0.2585 -0.5908  0.2598
  188UNL    CL1 1058   1.051   3.524   1.509  0.2918  0.1917 -0.5828
  188UNL    CL2 1059   1.320   3.617   1.563 -0.0948 -0.0553 -0.0500
  188UNL      H 1060   1.204   3.456   1.685  1.0558  0.4925  1.9559
  189UNL     CL 1061   3.476   1.248   2.038 -0.2749  0.2649 -0.1598
  189UNL      C 1062   3.487   1.427   2.020  0.3577 -1.3856 -0.3872
  189UNL    CL1 1063   3.424   1.510   2.177 -0.1805 -0.3003  0.2977
  189UNL    CL2 1064   3.662   1.475   1.993  0.1554  0.0573  0.1244
  189UNL      H 1065   3.424   1.472   1.942  1.1882 -1.0109 -0.8563
  190UNL     CL 1066   1.751   1.250   2.432 -0.2028  0.1219 -0.2620
  190UNL      C 1067   1.751   1.196   2.606 -0.2649  0.0164  0.2695
  190UNL    CL1 1068   1.699   1.329   2.716  0.0198  0.3205  0.2370
  190UNL    CL2 1069   1.623   1.067   2.599  0.3413  0.4609 -0.4955
  190UNL      H 1070   1.850   1.159   2.633  0.8832  2.2683 -0.5316
  191UNL     CL 1071   1.772   0.602   1.759  0.2112  0.1320  0.0077
  191UNL      C 1072   1.603   0.662   1.779 -0.4250 -0.2353  0.3176
  191UNL    CL1 1073   1.494   0.533   1.830  0.3367  0.2461  0.3056
  191UNL    CL2 1074   1.592   0.794   1.901  0.2188 -0.2245 -0.4334
  191UNL      H 1075   1.581   0.699   1.678  1.9452 -1.0271 -0.5572
  192UNL     CL 1076   0.382   0.774   1.554 -0.2871 -0.5011  0.2204
  192UNL      C 1077   0.481   0.632   1.499  0.6501  0.4528 -0.0832
  192UNL    CL1 1078   0.558   0.657   1.334 -0.0904 -0.3905 -0.1623
  192UNL    CL2 1079   0.609   0.589   1.623 -0.2371  0.3963 -0.4886
  192UNL      H 1080   0.420   0.542   1.491  0.5638  0.6300 -1.7947
  193UNL     CL 1081   1.166   2.844   0.772  0.3192 -0.1199  0.7808
  193UNL      C 1082   1.306   2.914   0.684  0.3156 -0.0958 -0.2234
  193UNL    CL1 1083   1.246   2.975   0.531 -0.1456  0.4511  0.1932
  193UNL    CL2 1084   1.372   3.045   0.782 -0.3171 -0.0346 -0.1227
  193UNL      H 1085   1.383   2.837   0.671 -0.8685 -1.4747  0.6478
  194UNL     CL 1086   3.128   1.551   1.072  0.0421  0.2073  0.1373
  194UNL      C 1087   3.112   1.391   1.152  0.0611  0.2323  0.0408
  194UNL    CL1 1088   2.956   1.310   1.128  0.1263 -0.2462  0.0208
  194UNL    CL2 1089   3.237   1.279   1.095 -0.1845  0.0057  0.1631
  194UNL      H 1090   3.130   1.401   1.259 -0.2959 -2.2186  0.3805
  195UNL     CL 1091   3.215   1.308   3.186 -0.0926  0.1959  0.1476
  195UNL      C 1092   3.188   1.492   3.187  0.1324 -0.1154  0.4278
  195UNL    CL1 1093   3.063   1.528   3.074 -0.2581 -0.6949 -0.1163
  195UNL    CL2 1094   3.143   1.535   3.358  0.4432  0.1448  0.0937
  195UNL      H 1095   3.278   1.548   3.161 -0.3147  0.5435  0.2938
  196UNL     CL 1096   2.718   3.219   2.579  0.0377  0.3176  0.1620
  196UNL      C 1097   2.631   3.155   2.716 -0.3025  0.7721  0.1600
  196UNL    CL1 1098   2.496   3.042   2.650 -0.3640  0.0473 -0.2400
  196UNL    CL2 1099   2.752   3.064   2.827 -0.6097 -0.3753  0.2435
  196UNL      H 1100   2.583   3.242   2.763  1.9921  2.2647 -0.1258
  197UNL     CL 1101   3.200   3.751   2.551 -0.3963  0.3034 -0.1347
  197UNL      C 1102   3.341   3.671   2.470  0.1966  0.3047 -0.1506
  197UNL    CL1 1103   3.472   3.781   2.415  0.2732  0.1810  0.1888
  197UNL    CL2 1104   3.403   3.543   2.585 -0.2621  0.1988  0.1438
  197UNL      H 1105   3.297   3.618   2.384 -0.4009 -2.6989  1.8481
  198UNL     CL 1106   3.772   0.345   3.845 -0.1733 -0.4916 -0.3380
  198UNL      C 1107   3.807   0.182   3.931 -0.3704 -0.1076 -0.2669
  198UNL    CL1 1108   3.929   0.090   3.821 -0.1005  0.3040  0.0957
  198UNL    CL2 1109   3.878   0.205   4.089  0.1858  0.3284 -0.3032
  198UNL      H 1110   3.720   0.118   3.948 -1.4551  1.2462 -0.5471
  199UNL     CL 1111   2.300   0.308   0.364 -0.2739  0.0907  0.1424
  199UNL      C 1112   2.139   0.273   0.435  0.3351 -0.0253  0.5600
  199UNL    CL1 1113   2.128   0.328   0.599  0.1277 -0.3843 -0.1404
  199UNL    CL2 1114   2.015   0.355   0.334  0.0040 -0.0405 -0.4940
  199UNL      H 1115   2.122   0.164   0.433  2.8911 -0.4793  0.4371
  200UNL     CL 1116   0.892   2.906   0.287  0.0403  0.0778 -0.3182
  200UNL      C 1117   0.756   2.965   0.397 -0.2779 -0.5705 -0.0160
  200UNL    CL1 1118   0.608   2.873   0.381 -0.4661  0.5656  0.1981
  200UNL    CL2 1119   0.804   2.958   0.576 -0.1549  0.0537 -0.0472
  200UNL      H 1120   0.726   3.067   0.373 -1.6738 -0.8394  0.4814
  201UNL     CL 1121   0.866   2.590   0.818  0.0786  0.4280 -0.3395
  201UNL      C 1122   0.987   2.468   0.859 -0.3773  0.2775  0.5889
  201UNL    CL1 1123   1.125   2.472   0.750 -0.2194 -0.2973 -0.0891
  201UNL    CL2 1124   1.044   2.490   1.032 -0.0816  0.5544  0.1230
  201UNL      H 1125   0.946   2.367   0.847 -0.5442  0.1888  1.7697
  202UNL     CL 1126   1.471   0.649   2.737  0.4425 -0.0060 -0.4534
  202UNL      C 1127   1.473   0.541   2.870 -0.4640  0.6522 -0.7642
  202UNL    CL1 1128   1.556   0.612   3.019 -0.2355 -0.5005  0.1709
  202UNL    CL2 1129   1.313   0.484   2.933  0.0588 -0.2665 -0.2316
  202UNL      H 1130   1.525   0.450   2.840 -0.6880  1.0239 -2.3814
  203UNL     CL 1131   3.842   2.271   2.505  0.6009  0.1483 -0.2182
  203UNL      C 1132   4.011   2.278   2.544 -0.3832  0.5471  0.3112
  203UNL    CL1 1133   4.101   2.145   2.461 -0.1375 -0.0884 -0.1113
  203UNL    CL2 1134   4.088   2.435   2.510  0.4207  0.0442  0.1261
  203UNL      H 1135   4.026   2.260   2.651 -0.6160 -0.7590  0.1433
  204UNL     CL 1136   1.084   2.278   2.969 -0.1857 -0.0080 -0.0240
  204UNL      C 1137   0.957   2.192   3.057  0.1360 -0.2199  0.1430
  204UNL    CL1 1138   0.846   2.305   3.140 -0.3421  0.1212 -0.3059
  204UNL    CL2 1139   0.859   2.085   2.950  0.0047 -0.1547  0.2510
  204UNL      H 1140   1.012   2.141   3.137  1.3167  0.5246 -0.1696
  205UNL     CL 1141   3.309   2.270   1.597 -0.7189  0.1784  0.0598
  205UNL      C 1142   3.333   2.098   1.546 -0.6261 -1.0095 -0.0661
  205UNL    CL1 1143   3.410   2.016   1.671  0.1422  0.0930  0.1099
  205UNL    CL2 1144   3.177   2.026   1.504  0.1506  0.0865 -0.3748
  205UNL      H 1145   3.394   2.093   1.455 -0.8455 -2.0183 -0.1693
  206UNL     CL 1146   3.208   0.802   0.236  0.1447 -0.0252  0.0050
  206UNL      C 1147   3.134   0.649   0.206  0.2345 -0.5944 -0.3783
  206UNL    CL1 1148   3.024   0.668   0.072 -0.0449  0.1448 -0.3026
  206UNL    CL2 1149   3.250   0.514   0.175 -0.0958  0.3151  0.3644
  206UNL      H 1150   3.064   0.626   0.287 -1.4553  3.0229 -0.6322
  207UNL     CL 1151   2.800   0.844   0.405  0.3263 -0.1595  0.1785
  207UNL      C 1152   2.800   1.001   0.325 -0.7030 -0.2269  0.0469
  207UNL    CL1 1153   2.678   1.012   0.191 -0.1273 -0.1732  0.1167
  207UNL    CL2 1154   2.797   1.133   0.450 -0.2858 -0.3826  0.2539
  207UNL      H 1155   2.894   1.015   0.270 -1.6812  0.0712 -1.6288
  208UNL     CL 1156   0.709   3.659   0.336  0.4350  0.2145 -0.0256
  208UNL      C 1157   0.885   3.641   0.320 -0.7573 -0.6505 -0.1814
  208UNL    CL1 1158   0.969   3.640   0.478  0.0078  0.0095  0.0595
  208UNL    CL2 1159   0.929   3.490   0.223 -0.2685  0.1810 -0.2903
  208UNL      H 1160   0.926   3.730   0.271  0.3056 -0.6036  0.7484
  209UNL     CL 1161   1.587   2.221   1.113 -0.3630 -0.6291  0.0024
  209UNL      C 1162   1.489   2.281   0.973  0.6849 -0.0208  0.2369
  209UNL    CL1 1163   1.333   2.190   0.972 -0.1174  0.1348  0.3204
  209UNL    CL2 1164   1.457   2.460   0.999  0.3197  0.3823  0.4985
  209UNL      H 1165   1.546   2.260   0.882  0.1538  1.1026 -0.3781
  210UNL     CL 1166   0.709   1.922   1.573 -0.3704  0.2962  0.0608
  210UNL      C 1167   0.708   1.970   1.738 -0.2250  0.1540 -0.2576
  210UNL    CL1 1168   0.633   2.136   1.746 -0.0927  0.2898  0.2774
  210UNL    CL2 1169   0.627   1.845   1.849 -0.4327  0.1070  0.0601
  210UNL      H 1170   0.813   1.979   1.767 -0.7068 -0.1014  1.6765
  211UNL     CL 1171   3.423   2.468   1.907 -0.1730 -0.2849  0.4062
  211UNL      C 1172   3.544   2.520   1.787  0.0705 -0.0899 -0.5460
  211UNL    CL1 1173   3.510   2.692   1.756  0.4302 -0.1685 -0.1132
  211UNL    CL2 1174   3.711   2.517   1.842  0.0188  0.6985 -0.3527
  211UNL      H 1175   3.524   2.457   1.700  1.4428 -1.6177  0.1790
  212UNL     CL 1176   3.142   3.260   2.352 -0.2470 -0.0250 -0.3165
  212UNL      C 1177   3.056   3.343   2.218 -0.3135  0.1662  0.0024
  212UNL    CL1 1178   2.879   3.358   2.256 -0.4275 -0.2879 -0.0949
  212UNL    CL2 1179   3.138   3.502   2.213  0.4754 -0.2945  0.1146
  212UNL      H 1180   3.072   3.287   2.125  1.1467  0.6702 -0.0653
  213UNL     CL 1181   0.075   0.700   3.803  0.1477 -0.2077  0.1092
  213UNL      C 1182  -0.017   0.703   3.957  0.0647  0.3266  0.1149
  213UNL    CL1 1183   0.064   0.584   4.071 -0.0684 -0.0175  0.5032
  213UNL    CL2 1184  -0.003   0.861   4.031  0.0690  0.0079 -0.3488
  213UNL      H 1185  -0.121   0.684   3.927 -0.1712  0.3148  0.9358
  214UNL     CL 1186   3.099   1.866   0.459 -0.1789 -0.2508 -0.3462
  214UNL      C 1187   3.210   2.003   0.437  0.2059  0.7064 -0.6699
  214UNL    CL1 1188   3.151   2.158   0.505  0.0204 -0.2013  0.2947
  214UNL    CL2 1189   3.357   1.956   0.521  0.1321  0.0381 -0.2049
  214UNL      H 1190   3.232   2.016   0.331  0.9990 -0.5625 -0.6962
  215UNL     CL 1191   3.223   2.125   2.222  0.1221  0.2882 -0.3183
  215UNL      C 1192   3.389   2.194   2.253  0.0750  0.0949 -0.1123
  215UNL    CL1 1193   3.462   2.151   2.410 -0.3253 -0.0977 -0.5893
  215UNL    CL2 1194   3.506   2.119   2.127  0.1345 -0.0730 -0.1292
  215UNL      H 1195   3.401   2.302   2.239  1.4878 -0.2446 -1.9634
  216UNL     CL 1196   1.345   0.357   0.225 -0.2379  0.0213  0.0111
  216UNL      C 1197   1.400   0.187   0.224  0.5441 -0.2228  0.2710
  216UNL    CL1 1198   1.580   0.187   0.202 -0.2998  0.3242  0.1685
  216UNL    CL2 1199   1.354   0.110   0.376 -0.0167 -0.0743 -0.1730
  216UNL      H 1200   1.358   0.131   0.140 -0.5990 -2.5392  2.2709
  217UNL     CL 1201   0.337   1.795   2.210 -0.2389 -0.0208  0.0531
  217UNL      C 1202   0.270   1.636   2.156 -0.1314 -0.6841 -0.1093
  217UNL    CL1 1203   0.417   1.535   2.113  0.1357  0.0166 -0.2276
  217UNL    CL2 1204   0.165   1.563   2.281 -0.2683 -0.3191 -0.2727
  217UNL      H 1205   0.207   1.653   2.068 -0.0238 -1.1934 -0.2898
  218UNL     CL 1206   3.061   2.599   1.861 -0.2435  0.1219  0.1615
  218UNL      C 1207   3.056   2.730   1.733  0.0108 -0.2659 -0.2590
  218UNL    CL1 1208   3.189   2.844   1.775 -0.2701  0.1992 -0.1550
  218UNL    CL2 1209   3.117   2.664   1.571  0.1329  0.2786 -0.3563
  218UNL      H 1210   2.953   2.766   1.737 -1.1562 -3.1693 -1.1736
  219UNL     CL 1211   0.676   0.337   3.262 -0.2722  0.0621 -0.0380
  219UNL      C 1212   0.753   0.371   3.422  0.5832 -0.3649  0.1224
  219UNL    CL1 1213   0.836   0.541   3.416 -0.6883  0.3415  0.4197
  219UNL    CL2 1214   0.631   0.381   3.554  0.4367 -0.0585 -0.5278
  219UNL      H 1215   0.830   0.298   3.450  1.3766  0.7093  0.7894
  220UNL     CL 1216   0.364   1.639   0.357  0.1695 -0.6324 -0.2149
  220UNL      C 1217   0.532   1.699   0.351 -0.1071 -0.2166  0.3500
  220UNL    CL1 1218   0.618   1.673   0.507 -0.0975 -0.1428 -0.2043
  220UNL    CL2 1219   0.627   1.615   0.230 -0.3461 -0.0500 -0.3605
  220UNL      H 1220   0.538   1.804   0.321  0.7257 -0.7287 -1.4562
  221UNL     CL 1221   0.341   0.937   1.020  0.0514 -0.1199  0.0756
  221UNL      C 1222   0.186   0.849   1.025 -0.2460  0.1839  0.0438
  221UNL    CL1 1223   0.053   0.943   1.111  0.2548 -0.0599 -0.0138
  221UNL    CL2 1224   0.127   0.787   0.859 -0.2775  0.0214 -0.0466
  221UNL      H 1225   0.191   0.765   1.096 -1.0031 -0.0303 -0.1525
  222UNL     CL 1226   0.108   3.111   1.928  0.0160 -0.1548 -0.6260
  222UNL      C 1227   0.279   3.142   1.965 -0.1011  0.3841  0.5171
  222UNL    CL1 1228   0.364   3.009   2.042 -0.6753  0.3178 -0.0565
  222UNL    CL2 1229   0.363   3.163   1.810  0.0290 -0.3656 -0.3912
  222UNL      H 1230   0.282   3.234   2.025 -0.8256 -0.6327  2.1822
  223UNL     CL 1231   0.893   2.530   2.183  0.1638  0.0373 -0.3102
  223UNL      C 1232   0.934   2.679   2.076 -0.0301  0.3532  0.1185
  223UNL    CL1 1233   0.801   2.797   2.093 -0.4289 -0.4800 -0.1862
  223UNL    CL2 1234   1.094   2.758   2.110  0.4798  0.2787  0.2935
  223UNL      H 1235   0.953   2.646   1.973  1.3595  0.2830  0.3803
  224UNL     CL 1236   1.026   0.681   3.825 -0.2115  0.0500  0.1732
  224UNL      C 1237   1.030   0.526   3.729  0.9479  0.0328 -0.0359
  224UNL    CL1 1238   1.185   0.448   3.760  0.5383 -0.1627  0.1477
  224UNL    CL2 1239   0.902   0.418   3.790  0.1075 -0.0858  0.2648
  224UNL      H 1240   1.004   0.541   3.624 -0.9470 -1.5893  0.1290
  225UNL     CL 1241   2.396   1.749   2.909 -0.1537  0.1064  0.1153
  225UNL      C 1242   2.280   1.729   3.046 -0.1780 -0.4894  0.2202
  225UNL    CL1 1243   2.344   1.599   3.158  0.0210  0.2661 -0.2074
  225UNL    CL2 1244   2.244   1.884   3.138 -0.2807  0.1416  0.1677
  225UNL      H 1245   2.183   1.693   3.010  0.5017 -2.1806  0.0264
  226UNL     CL 1246   1.226   0.540   2.511 -0.1989  0.3722  0.0114
  226UNL      C 1247   1.355   0.531   2.386 -0.2132  0.3122 -0.7403
  226UNL    CL1 1248   1.421   0.696   2.351 -0.2634 -0.0491  0.1358
  226UNL    CL2 1249   1.487   0.438   2.442 -0.1581  0.1211 -0.2540
  226UNL      H 1250   1.313   0.486   2.296 -0.6834  1.8614 -1.3252
  227UNL     CL 1251   1.667   1.170   0.988  0.1241 -0.0631 -0.0797
  227UNL      C 1252   1.706   1.214   0.821  0.4743 -0.1626 -0.7758
  227UNL    CL1 1253   1.644   1.085   0.718  0.2063  0.1705  0.0434
  227UNL    CL2 1254   1.616   1.366   0.777  0.2226  0.2119 -0.0178
  227UNL      H 1255   1.812   1.235   0.803  0.3728  0.9053 -0.2290
  228UNL     CL 1256   1.582   0.206   1.729  0.3604  0.5556  0.3556
  228UNL      C 1257   1.413   0.204   1.792 -0.2525 -0.7770  0.2399
  228UNL    CL1 1258   1.344   0.043   1.777 -0.4276  0.0167  0.0945
  228UNL    CL2 1259   1.414   0.255   1.963  0.1813 -0.0387  0.1481
  228UNL      H 1260   1.355   0.276   1.732  3.3343  0.5598 -2.0180
  229UNL     CL 1261   1.481   2.891   1.064  0.5507 -0.3832  0.0818
  229UNL      C 1262   1.312   2.831   1.100 -0.3909 -0.0836 -0.0353
  229UNL    CL1 1263   1.331   2.674   1.197  0.3083 -0.3302 -0.3105
  229UNL    CL2 1264   1.196   2.937   1.187  0.0680 -0.3267 -0.4253
  229UNL      H 1265   1.269   2.804   1.003  0.2611 -0.8700 -0.1175
  230UNL     CL 1266   2.028   2.786   2.010  0.1200 -0.0853  0.1517
  230UNL      C 1267   1.990   2.913   1.898 -0.0974 -0.1676 -0.4913
  230UNL    CL1 1268   1.954   3.067   1.988 -0.0354 -0.6977  0.3324
  230UNL    CL2 1269   2.132   2.951   1.791 -0.4240  0.1620 -0.1487
  230UNL      H 1270   1.905   2.879   1.839  0.2952 -0.5895 -0.8157
  231UNL     CL 1271   1.896   3.003   2.996 -0.4849 -0.1907  0.1938
  231UNL      C 1272   2.046   2.956   3.088 -0.6976 -0.2196  0.0430
  231UNL    CL1 1273   2.059   3.059   3.238 -0.1268  0.3344 -0.5498
  231UNL    CL2 1274   2.035   2.777   3.118 -0.1548 -0.2808  0.3030
  231UNL      H 1275   2.137   2.977   3.032  0.3472 -0.3158  1.6213
  232UNL     CL 1276   2.922   2.860   2.389  0.2723  0.0301  0.4191
  232UNL      C 1277   3.062   2.921   2.462  0.1915  0.2113 -0.2424
  232UNL    CL1 1278   3.012   3.048   2.592 -0.4971  0.2338  0.4887
  232UNL    CL2 1279   3.156   2.788   2.552 -0.1620 -0.2198 -0.0698
  232UNL      H 1280   3.133   2.967   2.392  1.0213  2.7801  2.0963
  233UNL     CL 1281   2.818   2.249   0.623  0.1245 -0.0478 -0.0528
  233UNL      C 1282   2.666   2.351   0.618 -0.3440 -0.3611  0.3764
  233UNL    CL1 1283   2.688   2.476   0.493 -0.3036 -0.0723 -0.3349
  233UNL    CL2 1284   2.517   2.257   0.585 -0.3936  0.0081  0.1622
  233UNL      H 1285   2.659   2.398   0.716 -1.9380 -0.6352  0.4267
  234UNL     CL 1286   2.912   3.748   3.560  0.3088 -0.3960  0.0663
  234UNL      C 1287   2.765   3.836   3.478  0.4057 -0.3053  0.7226
  234UNL    CL1 1288   2.777   3.819   3.301 -0.0166 -0.1173  0.1296
  234UNL    CL2 1289   2.615   3.754   3.543 -0.0682 -0.3870 -0.0551
  234UNL      H 1290   2.772   3.939   3.512 -2.0834 -0.3729  1.6028
  235UNL     CL 1291   1.433   3.641   3.031  0.1894  0.1069  0.6490
  235UNL      C 1292   1.515   3.770   3.117 -0.1265  0.3449  0.4443
  235UNL    CL1 1293   1.668   3.711   3.172  0.6045 -0.4644 -0.0259
  235UNL    CL2 1294   1.535   3.909   3.005  0.2207 -0.2180  0.2636
  235UNL      H 1295   1.466   3.799   3.211 -0.3516 -0.3925  0.5623
  236UNL     CL 1296   1.927   3.106   1.498  0.3842 -0.3434 -0.0028
  236UNL      C 1297   1.935   3.037   1.330  0.6155 -0.6913 -0.0833
  236UNL    CL1 1298   2.050   3.130   1.233  0.5249  0.2102 -0.0652
  236UNL    CL2 1299   1.991   2.858   1.339 -0.7786 -0.0755 -0.0983
  236UNL      H 1300   1.837   3.044   1.281  0.0929  4.1480  1.1099
  237UNL     CL 1301   3.539   2.276   3.751 -0.4013 -0.8361 -0.1708
  237UNL      C 1302   3.471   2.298   3.914 -0.0867  0.4023 -0.5589
  237UNL    CL1 1303   3.333   2.184   3.941 -0.2231  0.1835 -0.3192
  237UNL    CL2 1304   3.593   2.265   4.043 -0.2072  0.0936  0.0762
  237UNL      H 1305   3.435   2.400   3.929 -0.3936  0.1141  0.8809
  238UNL     CL 1306   0.673   2.806   3.016  0.0845  0.6115  0.2295
  238UNL      C 1307   0.724   2.741   3.170 -0.3727  0.2324  0.0002
  238UNL    CL1 1308   0.737   2.865   3.304 -0.2708  0.1049  0.1423
  238UNL    CL2 1309   0.609   2.618   3.218  0.0790  0.1893  0.1069
  238UNL      H 1310   0.824   2.698   3.161  0.0438  1.1148  0.2715
  239UNL     CL 1311   1.357   1.100   0.393  0.3866 -0.0309 -0.1385
  239UNL      C 1312   1.341   1.100   0.221  0.1939  0.0793  0.3786
  239UNL    CL1 1313   1.242   0.963   0.162 -0.0676 -0.7269  0.1642
  239UNL    CL2 1314   1.269   1.246   0.149 -0.4005  0.5197  0.2086
  239UNL      H 1315   1.443   1.091   0.181 -0.3668  2.7566 -1.9518
  240UNL     CL 1316   0.445   0.861   0.118  0.6022 -0.0341 -0.1420
  240UNL      C 1317   0.538   0.825  -0.036  0.0491  0.3886 -0.4069
  240UNL    CL1 1318   0.628   0.677  -0.005  0.2492  0.1144  0.3272
  240UNL    CL2 1319   0.416   0.796  -0.169 -0.2285  0.0704  0.2045
  240UNL      H 1320   0.593   0.919  -0.054 -0.4232  0.5684 -0.9274
  241UNL     CL 1321   1.477   3.282   1.471  0.0943 -0.1148  0.1118
  241UNL      C 1322   1.389   3.302   1.313 -0.0385 -0.0396 -0.7779
  241UNL    CL1 1323   1.471   3.186   1.198  0.0435  0.0982 -0.1461
  241UNL    CL2 1324   1.214   3.266   1.335  0.1074  0.3984  0.1084
  241UNL      H 1325   1.393   3.406   1.277 -0.6846  0.2922  0.0684
  242UNL     CL 1326   1.156   3.572   3.390  0.0751  0.1881  0.0741
  242UNL      C 1327   1.293   3.459   3.420 -0.4023  0.2662  0.3776
  242UNL    CL1 1328   1.370   3.499   3.579  0.1305 -0.0169  0.4069
  242UNL    CL2 1329   1.223   3.284   3.427 -0.3479  0.2294  0.2913
  242UNL      H 1330   1.372   3.469   3.345 -0.1465 -0.2253  0.5756
  243UNL     CL 1331   2.991   1.082   2.761 -0.3345  0.6285  0.1704
  243UNL      C 1332   3.102   0.981   2.844 -0.0969  0.8772 -0.0442
  243UNL    CL1 1333   3.121   0.819   2.758  0.5928  0.0028  0.0051
  243UNL    CL2 1334   3.261   1.058   2.860 -0.3318  0.2895  0.2707
  243UNL      H 1335   3.066   0.967   2.947  1.5600  0.4186  0.5087
  244UNL     CL 1336   1.484   1.618   0.051  0.3398 -0.1301  0.4618
  244UNL      C 1337   1.501   1.792   0.097 -0.2392  0.1824 -0.2674
  244UNL    CL1 1338   1.598   1.803   0.255 -0.1723 -0.0493 -0.3533
  244UNL    CL2 1339   1.593   1.880  -0.036  0.2238  0.0057 -0.1662
  244UNL      H 1340   1.407   1.841   0.126  0.3077  0.4153  1.1810
  245UNL     CL 1341   0.969   1.325   0.379  0.0809  0.1991  0.1846
  245UNL      C 1342   0.950   1.331   0.553  0.1469  0.5485  0.3597
  245UNL    CL1 1343   1.115   1.360   0.611  0.0864 -0.1774  0.1434
  245UNL    CL2 1344   0.833   1.461   0.602  0.0714  0.1618 -0.1857
  245UNL      H 1345   0.901   1.248   0.604 -0.7629  1.4455  0.9764
  246UNL     CL 1346   1.804   3.467   2.441  0.1020  0.1324 -0.4427
  246UNL      C 1347   1.737   3.336   2.338  1.1064  0.1053  0.1480
  246UNL    CL1 1348   1.603   3.241   2.422  0.0935 -0.1595  0.0203
  246UNL    CL2 1349   1.688   3.399   2.173  0.1678 -0.4477  0.6936
  246UNL      H 1350   1.817   3.262   2.326  0.8984  0.0826 -1.3922
  247UNL     CL 1351   3.218   2.956   0.454  0.0434  0.1026 -0.1138
  247UNL      C 1352   3.093   3.051   0.363  0.4248 -0.2545  0.3750
  247UNL    CL1 1353   2.928   2.964   0.384  0.5359 -0.2373 -0.1083
  247UNL    CL2 1354   3.085   3.221   0.414  0.0927 -0.0493 -0.4417
  247UNL      H 1355   3.117   3.047   0.256 -2.7709  0.9029 -0.4901
  248UNL     CL 1356   3.167   0.139   0.449  0.4072 -0.1242 -0.2313
  248UNL      C 1357   3.246   0.010   0.359  0.1653  0.4959  0.6660
  248UNL    CL1 1358   3.227   0.031   0.184 -0.1862 -0.2830 -0.0212
  248UNL    CL2 1359   3.428   0.019   0.391 -0.2337  0.1718 -0.1576
  248UNL      H 1360   3.215  -0.089   0.394  1.8429  0.3920  2.0301
  249UNL     CL 1361   2.657   1.157   2.916  0.2009 -0.1711 -0.0096
  249UNL      C 1362   2.786   1.286   2.941  0.3974 -0.5174 -0.5185
  249UNL    CL1 1363   2.703   1.437   3.001  0.2038  0.3341 -0.0078
  249UNL    CL2 1364   2.914   1.245   3.065 -0.0538 -0.0206 -0.0735
  249UNL      H 1365   2.833   1.316   2.848 -0.3506 -0.2591 -0.8216
  250UNL     CL 1366   2.235   3.265   0.288  0.1029 -0.1764  0.3186
  250UNL      C 1367   2.095   3.235   0.405 -0.3619  0.8722 -0.3583
  250UNL    CL1 1368   2.155   3.139   0.546  0.2134  0.2448  0.0052
  250UNL    CL2 1369   2.021   3.380   0.453 -0.3854  0.0181 -0.0142
  250UNL      H 1370   2.013   3.173   0.367 -2.0428  1.6353  1.7899
  251UNL     CL 1371   0.119   1.258   0.209  0.0784  0.2848 -0.0824
  251UNL      C 1372   0.099   1.219   0.044 -0.3777  0.4615 -0.1735
  251UNL    CL1 1373  -0.006   1.343  -0.034 -0.1958 -0.1880  0.3617
  251UNL    CL2 1374   0.261   1.212  -0.044  0.5894  0.0018  0.3999
  251UNL      H 1375   0.047   1.123   0.035 -0.3392  0.3343  0.8833
  252UNL     CL 1376   1.760   1.673   1.872  0.0751 -0.3757  0.1348
  252UNL      C 1377   1.677   1.562   1.978 -0.2598 -0.5841 -0.1744
  252UNL    CL1 1378   1.504   1.554   1.943  0.0744  0.3588  0.4163
  252UNL    CL2 1379   1.749   1.396   1.971  0.0818 -0.3284  0.0103
  252UNL      H 1380   1.696   1.588   2.083  2.6799 -2.7675 -0.0347
  253UNL     CL 1381   2.752   1.224   1.763  0.0088  0.6496 -0.0836
  253UNL      C 1382   2.875   1.244   1.896  0.4791 -0.0905 -0.3865
  253UNL    CL1 1383   2.792   1.232   2.057 -0.1423 -0.2463 -0.3248
  253UNL    CL2 1384   3.000   1.115   1.878  0.0130  0.1238 -0.0282
  253UNL      H 1385   2.918   1.344   1.900 -1.2042  0.6415  0.9628
  254UNL     CL 1386   3.016   1.221   0.723 -0.2159 -0.7590 -0.1818
  254UNL      C 1387   3.138   1.221   0.589 -0.2468 -0.8871 -0.8648
  254UNL    CL1 1388   3.119   1.078   0.482 -0.1127  0.0109  0.4730
  254UNL    CL2 1389   3.140   1.378   0.511 -0.0107  0.1804  0.2189
  254UNL      H 1390   3.238   1.216   0.634 -0.2492  3.0990 -0.0709
  255UNL     CL 1391   2.626   0.825   3.218 -0.1079  0.2831  0.0224
  255UNL      C 1392   2.800   0.828   3.168  0.1176  0.4480 -0.1784
  255UNL    CL1 1393   2.881   0.687   3.240  0.1902 -0.3097  0.0074
  255UNL    CL2 1394   2.812   0.840   2.986  0.4466  0.1052 -0.4529
  255UNL      H 1395   2.835   0.923   3.209  0.3571  0.2888 -0.0078
  256UNL     CL 1396   3.124   3.240   1.664  0.2320 -0.1795  0.2447
  256UNL      C 1397   2.955   3.207   1.678 -0.3680  0.2658  0.3223
  256UNL    CL1 1398   2.890   3.179   1.849 -0.0100  0.0867 -0.0611
  256UNL    CL2 1399   2.868   3.351   1.601  0.0035  0.6805  0.4564
  256UNL      H 1400   2.934   3.125   1.608  0.4559  0.4799 -0.1910
  257UNL     CL 1401   0.824   1.980   0.591 -0.1704  0.2309  0.0737
  257UNL      C 1402   0.979   2.055   0.587  1.1664 -0.4420 -0.1518
  257UNL    CL1 1403   0.969   2.207   0.478  0.0470  0.4332 -0.1685
  257UNL    CL2 1404   1.015   2.109   0.750 -0.1994  0.5797 -0.4064
  257UNL      H 1405   1.059   1.987   0.557  2.2544  0.1645  1.2603
  258UNL     CL 1406   0.243   3.144   3.127 -0.1379 -0.3758  0.3021
  258UNL      C 1407   0.386   3.057   3.062 -0.5699 -0.0518 -0.2864
  258UNL    CL1 1408   0.535   3.107   3.156 -0.1484 -0.2835 -0.3902
  258UNL    CL2 1409   0.349   2.880   3.052 -0.0417 -0.3742 -0.0902
  258UNL      H 1410   0.414   3.094   2.963  2.8136 -0.3753  0.4427
  259UNL     CL 1411   0.345   1.870   0.830 -0.2890  0.2839  0.2058
  259UNL      C 1412   0.248   1.914   0.978 -0.9547  0.0265 -0.4754
  259UNL    CL1 1413   0.078   1.868   0.943 -0.1550  0.0644  0.2696
  259UNL    CL2 1414   0.339   1.824   1.105  0.4116 -0.3002  0.0117
  259UNL      H 1415   0.254   2.018   1.010  1.3334  0.6089 -2.5165
  260UNL     CL 1416   0.349   0.037   1.278 -0.2811 -0.0760 -0.1347
  260UNL      C 1417   0.204  -0.073   1.256  0.4897  0.3270  0.3636
  260UNL    CL1 1418   0.099  -0.053   1.394 -0.0611  0.0112 -0.0865
  260UNL    CL2 1419   0.112  -0.023   1.114  0.4070  0.5229 -0.0328
  260UNL      H 1420   0.235  -0.178   1.250 -0.5386 -0.0856  1.6834
  261UNL     CL 1421   1.421   1.909   3.456  0.0617 -0.1248 -0.3107
  261UNL      C 1422   1.406   1.747   3.533 -0.2524 -0.2062  0.5222
  261UNL    CL1 1423   1.269   1.739   3.633  0.0033  0.5463 -0.2885
  261UNL    CL2 1424   1.399   1.619   3.407  0.5762 -0.1529  0.0018
  261UNL      H 1425   1.497   1.733   3.592 -0.7519  1.0719  1.6244
  262UNL     CL 1426   3.598   2.397   3.389  0.0199  0.3634 -0.4174
  262UNL      C 1427   3.532   2.479   3.240 -0.0872  0.6448  0.9697
  262UNL    CL1 1428   3.567   2.378   3.098 -0.1475  0.0955  0.4254
  262UNL    CL2 1429   3.349   2.505   3.261  0.3037 -0.1388 -0.2959
  262UNL      H 1430   3.576   2.579   3.232 -2.1797  1.5515  0.3128
  263UNL     CL 1431   3.779   2.863   2.704 -0.2457  0.1310 -0.5043
  263UNL      C 1432   3.775   2.765   2.854 -0.1197  0.9447  0.1534
  263UNL    CL1 1433   3.882   2.607   2.832 -0.5047  0.0125 -0.2595
  263UNL    CL2 1434   3.826   2.850   3.005 -0.1689  0.0660 -0.3047
  263UNL      H 1435   3.672   2.733   2.867 -0.1475  1.2714  0.7744
  264UNL     CL 1436   0.236   3.787   2.697 -0.3149 -0.0162  0.1535
  264UNL      C 1437   0.201   3.948   2.776  0.3537 -0.2251  0.0813
  264UNL    CL1 1438   0.135   4.065   2.647 -0.4651 -0.0993  0.0601
  264UNL    CL2 1439   0.080   3.945   2.908 -0.1955  0.0401  0.2225
  264UNL      H 1440   0.290   3.992   2.822 -0.3530 -1.9457  3.3788
  265UNL     CL 1441   2.670   0.293   3.604 -0.1578  0.1091 -0.0891
  265UNL      C 1442   2.687   0.314   3.426 -0.1608 -0.0176 -0.2250
  265UNL    CL1 1443   2.585   0.451   3.359 -0.0692  0.0129  0.2662
  265UNL    CL2 1444   2.865   0.353   3.384 -0.3044  0.3281 -0.5187
  265UNL      H 1445   2.667   0.221   3.370 -0.3135 -0.1501  0.0507
  266UNL     CL 1446   0.710   2.529   2.468  0.5336  0.0134 -0.1836
  266UNL      C 1447   0.818   2.621   2.582  1.1132  0.4593  0.1699
  266UNL    CL1 1448   0.918   2.504   2.677 -0.1975 -0.0198  0.1606
  266UNL    CL2 1449   0.923   2.728   2.479 -0.4078  0.3506 -0.0860
  266UNL      H 1450   0.751   2.684   2.642 -1.8850 -1.2829 -1.1531
  267UNL     CL 1451   2.127   1.296   2.976 -0.3916 -0.5096 -0.5180
  267UNL      C 1452   2.120   1.359   2.810  0.1163 -0.7678  0.2595
  267UNL    CL1 1453   2.237   1.498   2.785  0.2810 -0.1808  0.2755
  267UNL    CL2 1454   2.128   1.216   2.691 -0.2465  0.0735  0.0046
  267UNL      H 1455   2.019   1.400   2.806  0.9425  1.8083  2.6979
  268UNL     CL 1456   1.934   1.044   0.522 -0.0446  0.0426  0.1706
  268UNL      C 1457   2.036   0.909   0.595  0.3247 -0.8423 -0.0720
  268UNL    CL1 1458   2.074   0.961   0.765  0.0989 -0.3792 -0.2643
  268UNL    CL2 1459   1.926   0.766   0.592  0.4041 -0.3196 -0.0306
  268UNL      H 1460   2.123   0.886   0.532 -0.1153 -2.1999 -0.2263
  269UNL     CL 1461   0.454   3.531   1.493 -0.5889  0.2247 -0.1079
  269UNL      C 1462   0.596   3.648   1.504 -0.0966  0.3623 -0.3076
  269UNL    CL1 1463   0.622   3.700   1.335  0.4629  0.4533  0.2261
  269UNL    CL2 1464   0.570   3.790   1.607 -0.2349  0.4319  0.0020
  269UNL      H 1465   0.684   3.590   1.535 -1.6354 -0.6712  2.4500
  270UNL     CL 1466   1.141   2.246   3.612 -0.2551  0.0075 -0.0696
  270UNL      C 1467   1.143   2.078   3.654  0.1645 -0.0371  0.2852
  270UNL    CL1 1468   1.173   2.062   3.833 -0.0941 -0.2552  0.0845
  270UNL    CL2 1469   0.973   2.035   3.617  0.1078  0.3181  0.0079
  270UNL      H 1470   1.209   2.023   3.587 -1.0487 -1.6884  0.3888
  271UNL     CL 1471   0.450   3.140   3.495 -0.0370 -0.2842  0.8593
  271UNL      C 1472   0.415   3.052   3.650 -0.0057 -1.0851  0.4989
  271UNL    CL1 1473   0.579   3.028   3.714  0.2126  0.0395  0.0214
  271UNL    CL2 1474   0.306   3.146   3.753  0.1892 -0.0429 -0.2621
  271UNL      H 1475   0.362   2.959   3.627  0.6638 -1.4704  0.4736
  272UNL     CL 1476   0.017   3.523   2.950  0.3850  0.3330  0.3801
  272UNL      C 1477  -0.141   3.442   2.994 -0.6694  0.3024  0.1991
  272UNL    CL1 1478  -0.167   3.307   2.880 -0.3805 -0.1500  0.1595
  272UNL    CL2 1479  -0.128   3.370   3.160 -0.0118  0.4579  0.7023
  272UNL      H 1480  -0.221   3.516   2.994  1.6097  2.9224 -0.7223
  273UNL     CL 1481   0.901   1.832   2.226 -0.3275  0.0625  0.0818
  273UNL      C 1482   0.947   1.710   2.349 -0.5289  0.3836 -0.0042
  273UNL    CL1 1483   0.861   1.554   2.331  0.2688  0.0636  0.2173
  273UNL    CL2 1484   1.119   1.681   2.329 -0.4132 -0.1455  0.1950
  273UNL      H 1485   0.938   1.749   2.451  0.3097 -1.3768  0.7873
  274UNL     CL 1486   3.466   1.599   2.852  0.6114  0.0340  0.0414
  274UNL      C 1487   3.423   1.498   2.715  0.6035  0.7976 -0.1758
  274UNL    CL1 1488   3.551   1.375   2.691 -0.0655 -0.0752 -0.1729
  274UNL    CL2 1489   3.260   1.416   2.738  0.4918  0.1231 -0.1317
  274UNL      H 1490   3.421   1.560   2.625  0.4135  0.7620 -0.1959
  275UNL     CL 1491   1.401   1.826   3.115 -0.3050  0.0609 -0.1296
  275UNL      C 1492   1.238   1.892   3.110 -0.1368 -0.2162  0.2386
  275UNL    CL1 1493   1.237   2.051   3.196  0.1148 -0.3060  0.2195
  275UNL    CL2 1494   1.171   1.914   2.934 -0.2226  0.4852  0.3067
  275UNL      H 1495   1.174   1.816   3.157 -0.3205 -0.2407 -0.0476
  276UNL     CL 1496   1.567   3.225   0.394 -0.5857  0.0655  0.8277
  276UNL      C 1497   1.475   3.350   0.484 -0.5571 -0.6936  0.4427
  276UNL    CL1 1498   1.294   3.324   0.486  0.1632  0.4015 -0.1005
  276UNL    CL2 1499   1.527   3.355   0.655  0.2255  0.3403 -0.1245
  276UNL      H 1500   1.483   3.452   0.446 -0.4296  0.4891  3.3418
  277UNL     CL 1501   3.604   0.668   0.348  0.2309  0.0670  0.0227
  277UNL      C 1502   3.629   0.705   0.521  0.1027 -0.0410  0.0315
  277UNL    CL1 1503   3.807   0.730   0.543 -0.1712 -0.2973  0.0896
  277UNL    CL2 1504   3.532   0.843   0.558 -0.1462  0.1409 -0.1629
  277UNL      H 1505   3.600   0.630   0.595 -1.4592  0.0246 -0.4828
  278UNL     CL 1506   0.776   3.328   3.644  0.3987 -0.2147  0.0538
  278UNL      C 1507   0.944   3.297   3.683 -0.2211 -0.6108 -0.2628
  278UNL    CL1 1508   1.037   3.455   3.693 -0.5453 -0.0982  0.1666
  278UNL    CL2 1509   0.955   3.208   3.835 -0.2470 -0.0766  0.1531
  278UNL      H 1510   0.975   3.235   3.597  0.1146  0.1756 -0.7238
  279UNL     CL 1511   2.060   3.484   2.199 -0.0396  0.1528 -0.0657
  279UNL      C 1512   2.036   3.664   2.205 -1.0096  0.3178 -0.0797
  279UNL    CL1 1513   2.184   3.754   2.236 -0.1256  0.0173  0.0396
  279UNL    CL2 1514   1.956   3.718   2.054 -0.0081 -0.2560 -0.1855
  279UNL      H 1515   1.960   3.685   2.282 -0.6408  2.5715 -0.2623
  280UNL     CL 1516   2.207   3.711   3.756  0.3003 -0.1917  0.1136
  280UNL      C 1517   2.266   3.774   3.915  0.6908  0.0423  0.0782
  280UNL    CL1 1518   2.176   3.698   4.046  0.1324 -0.3077 -0.2254
  280UNL    CL2 1519   2.441   3.746   3.932 -0.0959  0.3905 -0.1142
  280UNL      H 1520   2.245   3.881   3.928 -2.5506 -0.6357  1.6319
  281UNL     CL 1521   1.747   1.886   0.917 -0.0897 -0.3785  0.2032
  281UNL      C 1522   1.713   1.753   0.804 -0.2966 -0.8949 -0.3652
  281UNL    CL1 1523   1.543   1.699   0.833  0.4239 -0.0662  0.3577
  281UNL    CL2 1524   1.742   1.826   0.642  0.0046  0.2378  0.5785
  281UNL      H 1525   1.776   1.665   0.822  0.6543 -0.3597 -0.9976
  282UNL     CL 1526   2.831   1.733   2.350  0.0046 -0.0646 -0.2375
  282UNL      C 1527   2.957   1.830   2.264  0.3643  0.1725  1.1135
  282UNL    CL1 1528   2.993   1.750   2.100  0.3574  0.3986  0.4601
  282UNL    CL2 1529   2.889   1.992   2.227  0.0096  0.1824  0.0880
  282UNL      H 1530   3.048   1.850   2.323  0.3407  1.1855  0.8384
  283UNL     CL 1531   3.106   0.965   0.996 -0.2254  0.0001  0.1340
  283UNL      C 1532   3.231   0.921   0.878 -0.5805  0.4136  0.2215
  283UNL    CL1 1533   3.342   1.055   0.827  0.4412  0.0874 -0.1163
  283UNL    CL2 1534   3.321   0.779   0.934  0.0044  0.2399 -0.1314
  283UNL      H 1535   3.193   0.880   0.783 -0.5256  0.4310  0.1922
  284UNL     CL 1536   2.274   1.484   2.225  0.6059  0.0583 -0.0772
  284UNL      C 1537   2.118   1.447   2.147  0.6148 -0.2984  0.3616
  284UNL    CL1 1538   2.128   1.295   2.059 -0.1753 -0.5252  0.2218
  284UNL    CL2 1539   1.980   1.446   2.269 -0.1953 -0.2594  0.0985
  284UNL      H 1540   2.090   1.516   2.066  0.7862  0.2334  0.7534
  285UNL     CL 1541   1.219   3.132   0.162  0.1092  0.1318 -0.3309
  285UNL      C 1542   1.333   3.250   0.081  0.3365 -0.1740 -0.1679
  285UNL    CL1 1543   1.330   3.410   0.151 -0.0664 -0.4000  0.4191
  285UNL    CL2 1544   1.501   3.185   0.061  0.0396 -0.4781 -0.1884
  285UNL      H 1545   1.304   3.261  -0.024  2.0823 -1.3272 -0.8156
  286UNL     CL 1546   1.809   0.612   2.781  0.2104 -0.0838 -0.1160
  286UNL      C 1547   1.786   0.743   2.664 -0.1310 -0.8122 -0.5319
  286UNL    CL1 1548   1.928   0.858   2.668  0.3757 -0.2878  0.0163
  286UNL    CL2 1549   1.772   0.669   2.503 -0.0095  0.1397  0.2862
  286UNL      H 1550   1.698   0.805   2.683  1.3164  0.9208  0.9848
  287UNL     CL 1551   0.240   2.263   2.960  0.3280 -0.2184 -0.5574
  287UNL      C 1552   0.346   2.398   3.008 -0.0706 -0.6108 -0.0768
  287UNL    CL1 1553   0.411   2.471   2.857  0.1059 -0.1338  0.0187
  287UNL    CL2 1554   0.246   2.525   3.091 -0.0548  1.0618 -0.2850
  287UNL      H 1555   0.416   2.357   3.082 -0.6760 -0.4309  0.6075
  288UNL     CL 1556   1.745   2.820   3.560  0.0902  0.0805 -0.4205
  288UNL      C 1557   1.607   2.876   3.447 -0.2415  0.0165 -0.0608
  288UNL    CL1 1558   1.537   3.034   3.511 -0.1209  0.0673 -0.3432
  288UNL    CL2 1559   1.656   2.883   3.275 -0.2383 -0.6466  0.1804
  288UNL      H 1560   1.539   2.791   3.455  0.3424 -0.5960 -1.3327
  289UNL     CL 1561   2.533   2.114   2.459 -0.1434  0.1858 -0.2479
  289UNL      C 1562   2.587   1.952   2.488  0.4748  0.1697  0.5453
  289UNL    CL1 1563   2.744   1.976   2.578  0.1538 -0.1259 -0.1661
  289UNL    CL2 1564   2.464   1.854   2.571 -0.1281 -0.1113  0.1278
  289UNL      H 1565   2.616   1.902   2.395  1.4813 -1.2292  1.5821
  290UNL     CL 1566   2.766   3.640   0.997 -0.4832  0.3375 -0.0766
  290UNL      C 1567   2.724   3.600   1.162 -0.6448  0.0498 -0.1682
  290UNL    CL1 1568   2.875   3.532   1.227  0.1434 -0.2285  0.0571
  290UNL    CL2 1569   2.683   3.760   1.251  0.0448 -0.3246 -0.2248
  290UNL      H 1570   2.641   3.530   1.176 -1.2047  1.0647  1.8777
  291UNL     CL 1571   0.160   2.322   1.157  0.3295 -0.2035 -0.1539
  291UNL      C 1572   0.109   2.491   1.184 -0.2125 -0.7326  0.4276
  291UNL    CL1 1573   0.243   2.557   1.284 -0.0020  0.2463  0.0374
  291UNL    CL2 1574   0.087   2.579   1.030  0.1439 -0.1993 -0.5060
  291UNL      H 1575   0.017   2.498   1.241  0.7700  0.3909  1.9488
  292UNL     CL 1576   2.167   3.494   2.538 -0.1851  0.4481  0.1719
  292UNL      C 1577   2.342   3.545   2.518  0.5049  0.1719  0.7476
  292UNL    CL1 1578   2.444   3.495   2.666  0.0545  0.0030 -0.0135
  292UNL    CL2 1579   2.404   3.458   2.372  0.3305  0.0559  0.1697
  292UNL      H 1580   2.359   3.653   2.505  0.9407 -0.0208 -0.3122
  293UNL     CL 1581   3.220   3.388   3.243  0.3148 -0.0550  0.5720
  293UNL      C 1582   3.152   3.322   3.402  0.9313  0.6021 -0.0661
  293UNL    CL1 1583   3.273   3.318   3.527 -0.3971 -0.1044 -0.2057
  293UNL    CL2 1584   3.001   3.411   3.441  0.2342 -0.6789 -0.1818
  293UNL      H 1585   3.137   3.214   3.393  2.1426  0.2299  1.7191
  294UNL     CL 1586   1.544   0.476   0.672 -0.0539  0.0143  0.1517
  294UNL      C 1587   1.710   0.436   0.616  0.3259  0.4274  0.2291
  294UNL    CL1 1588   1.790   0.373   0.752  0.3343  0.3305 -0.3444
  294UNL    CL2 1589   1.697   0.330   0.476  0.4025  0.1766 -0.0889
  294UNL      H 1590   1.754   0.529   0.579 -0.9403  1.9060  2.2844
  295UNL     CL 1591   2.756   1.609   1.910  0.1167 -0.0936 -0.4335
  295UNL      C 1592   2.620   1.575   2.028  0.3618 -0.8092  0.2978
  295UNL    CL1 1593   2.545   1.722   2.099 -0.1395 -0.1676  0.1756
  295UNL    CL2 1594   2.500   1.475   1.942 -0.2785 -0.1097 -0.3290
  295UNL      H 1595   2.642   1.520   2.120 -3.1941 -0.8068  1.3042
  296UNL     CL 1596   1.228   2.825   2.651 -0.1822 -0.5107  0.1710
  296UNL      C 1597   1.368   2.922   2.590 -0.8141 -0.0998  0.5541
  296UNL    CL1 1598   1.347   3.091   2.642 -0.2475  0.2073  0.0805
  296UNL    CL2 1599   1.528   2.857   2.637  0.1679  0.1400  0.0529
  296UNL      H 1600   1.356   2.913   2.482 -1.6089 -0.1457  0.6405
  297UNL     CL 1601   0.879   2.318   1.341 -0.0939 -0.4429 -0.0362
  297UNL      C 1602   0.986   2.189   1.308 -0.5795  0.2566 -0.1973
  297UNL    CL1 1603   0.959   2.131   1.137  0.0024  0.4463 -0.0005
  297UNL    CL2 1604   1.168   2.251   1.329  0.2278 -0.0888  0.4591
  297UNL      H 1605   0.969   2.109   1.379 -0.5128  2.0443  1.9350
  298UNL     CL 1606   3.064   3.500   0.204 -0.0310 -0.0604 -0.0820
  298UNL      C 1607   3.229   3.448   0.133  1.1721 -0.4496  0.7661
  298UNL    CL1 1608   3.245   3.506  -0.038  0.0834 -0.2367  0.1820
  298UNL    CL2 1609   3.364   3.500   0.238 -0.0124 -0.2276  0.0465
  298UNL      H 1610   3.231   3.339   0.135  0.3881 -0.4637  1.2710
  299UNL     CL 1611   2.642   2.312   2.743  0.4629 -0.1603 -0.0072
  299UNL      C 1612   2.523   2.254   2.869 -0.1253  0.4352  0.2784
  299UNL    CL1 1613   2.358   2.280   2.808  0.1353  0.2887  0.4645
  299UNL    CL2 1614   2.545   2.071   2.889  0.1561  0.2064  0.1770
  299UNL      H 1615   2.548   2.307   2.961 -0.7050  1.7776 -0.3061
  300UNL     CL 1616   2.892   2.399   3.108  0.0195  0.0236 -0.1513
  300UNL      C 1617   3.003   2.470   2.989  0.1284 -0.3055  0.2436
  300UNL    CL1 1618   2.976   2.410   2.814 -0.1183  0.1206  0.0707
  300UNL    CL2 1619   2.979   2.657   2.991  0.4888  0.1643 -0.0200
  300UNL      H 1620   3.106   2.441   3.015  0.6011 -0.3263 -1.4897
  301UNL     CL 1621   3.446   2.659   1.095 -0.3398 -0.0485  0.4128
  301UNL      C 1622   3.370   2.535   1.202  0.3100 -0.6610 -0.8234
  301UNL    CL1 1623   3.426   2.378   1.136  0.4242 -0.2036 -0.5122
  301UNL    CL2 1624   3.416   2.569   1.373  0.0744 -0.0702  0.0488
  301UNL      H 1625   3.261   2.545   1.199  0.4086  1.6461  0.4798
  302UNL     CL 1626   0.588   3.777   2.755 -0.0718  0.2972 -0.2422
  302UNL      C 1627   0.640   3.891   2.633  0.0503  0.2824  0.2519
  302UNL    CL1 1628   0.639   3.803   2.477  0.0384 -0.0016  0.1274
  302UNL    CL2 1629   0.520   4.027   2.603  0.0943 -0.0599  0.5190
  302UNL      H 1630   0.741   3.928   2.655  1.3984 -2.1813 -1.3120
  303UNL     CL 1631   1.522   0.380   1.390 -0.2096 -0.1627  0.2005
  303UNL      C 1632   1.346   0.397   1.364 -0.6469 -0.5169 -0.3603
  303UNL    CL1 1633   1.261   0.282   1.470 -0.1457  0.3530 -0.0242
  303UNL    CL2 1634   1.307   0.567   1.407  0.1573 -0.1230  0.0989
  303UNL      H 1635   1.309   0.388   1.262 -0.4508  1.1745 -0.6065
  304UNL     CL 1636   1.308   2.105   0.587 -0.4029 -0.4882  0.0623
  304UNL      C 1637   1.469   2.162   0.543 -0.0126 -0.2217  0.3622
  304UNL    CL1 1638   1.502   2.144   0.371  0.0887  0.7912 -0.1416
  304UNL    CL2 1639   1.486   2.330   0.606 -0.2118 -0.4567 -0.1377
  304UNL      H 1640   1.536   2.102   0.605 -0.4956  0.0498  1.1649
  305UNL     CL 1641   1.670   3.184   2.782 -0.1234 -0.2137 -0.0037
  305UNL      C 1642   1.749   3.335   2.821  0.2644  0.5785 -0.3265
  305UNL    CL1 1643   1.637   3.473   2.790 -0.0095  0.2546 -0.3677
  305UNL    CL2 1644   1.788   3.326   2.994  0.0488  0.1795  0.4004
  305UNL      H 1645   1.847   3.348   2.774  1.2529  2.0494  1.9583
  306UNL     CL 1646   1.266   0.042   3.292 -0.3295  0.2422 -0.0202
  306UNL      C 1647   1.149   0.151   3.209 -0.4648  0.5929  0.0966
  306UNL    CL1 1648   1.119   0.299   3.306  0.3127  0.2501 -0.1446
  306UNL    CL2 1649   1.213   0.193   3.050 -0.0946 -0.4483  0.2038
  306UNL      H 1650   1.053   0.100   3.193  0.0703 -0.0500 -1.2069
  307UNL     CL 1651   3.245   3.637   0.920 -0.1687  0.1228 -0.3584
  307UNL      C 1652   3.380   3.527   0.857  0.2664 -0.2397  0.6143
  307UNL    CL1 1653   3.534   3.619   0.856  0.1437  0.3005 -0.0758
  307UNL    CL2 1654   3.390   3.383   0.959  0.3208  0.1484 -0.0136
  307UNL      H 1655   3.369   3.499   0.751  0.0102  0.9172  0.3255
  308UNL     CL 1656   1.877   3.151   0.076  0.1133 -0.0088 -0.4180
  308UNL      C 1657   1.833   2.989   0.167  0.6201  0.1618 -0.0560
  308UNL    CL1 1658   1.768   2.875   0.042  0.2417 -0.0153  0.4436
  308UNL    CL2 1659   1.967   2.917   0.252 -0.1793  0.5160 -0.5415
  308UNL      H 1660   1.764   3.004   0.250  1.7039  2.1645  0.5353
  309UNL     CL 1661   1.201   0.219   2.683 -0.3249 -0.5334  0.1370
  309UNL      C 1662   1.032   0.281   2.714  0.2394  0.3164  0.3526
  309UNL    CL1 1663   0.947   0.352   2.564 -0.0897  0.2933 -0.3599
  309UNL    CL2 1664   0.923   0.152   2.788 -0.1882 -0.0289  0.6039
  309UNL      H 1665   1.032   0.359   2.791 -1.0811  0.4363  0.2444
  310UNL     CL 1666   1.258   0.622   1.008  0.2221  0.0288 -0.0203
  310UNL      C 1667   1.428   0.665   0.996 -0.0350 -0.2794  1.0217
  310UNL    CL1 1668   1.456   0.829   1.065 -0.1456 -0.3370 -0.0417
  310UNL    CL2 1669   1.537   0.531   1.054  0.2858  0.1180 -0.2962
  310UNL      H 1670   1.439   0.686   0.890  1.3527  0.9020  1.3793
  311UNL     CL 1671   2.907   1.528   0.334  0.0412 -0.2938  0.0933
  311UNL      C 1672   2.843   1.602   0.487  0.3561  0.5153  0.3724
  311UNL    CL1 1673   2.746   1.742   0.438  0.2318 -0.1697  0.3167
  311UNL    CL2 1674   2.740   1.487   0.588 -0.0221 -0.1376 -0.3591
  311UNL      H 1675   2.928   1.643   0.543  0.3906  0.8449  0.0827
  312UNL     CL 1676   0.773   1.059   0.741 -0.1639 -0.0482 -0.1675
  312UNL      C 1677   0.686   1.088   0.899 -0.5877 -0.0173  0.4664
  312UNL    CL1 1678   0.749   0.975   1.019  0.3712 -0.0691 -0.3137
  312UNL    CL2 1679   0.717   1.256   0.953  0.2632  0.3380  0.0502
  312UNL      H 1680   0.579   1.068   0.888 -0.8267  1.4338 -0.0590
  313UNL     CL 1681   0.910   3.661   1.147 -0.2620  0.1511  0.5161
  313UNL      C 1682   0.928   3.831   1.213 -0.2909  0.3478  0.4114
  313UNL    CL1 1683   0.968   3.835   1.389  0.1369  0.1116 -0.0223
  313UNL    CL2 1684   1.060   3.908   1.119  0.1226  0.2331 -0.0791
  313UNL      H 1685   0.841   3.894   1.191 -0.5459 -0.0491  0.2806
  314UNL     CL 1686   1.699   2.463   3.604  0.0386 -0.0425  0.3668
  314UNL      C 1687   1.673   2.307   3.694 -0.4756 -0.3299 -0.5827
  314UNL    CL1 1688   1.527   2.223   3.624 -0.1978 -0.0152 -0.1162
  314UNL    CL2 1689   1.814   2.198   3.691  0.0558  0.5328 -0.1694
  314UNL      H 1690   1.654   2.329   3.800  1.3508 -1.0204 -0.0841
  315UNL     CL 1691   0.527   1.271   0.136 -0.1857  0.2187 -0.0675
  315UNL      C 1692   0.548   1.179   0.293 -0.8221 -0.9127 -0.2957
  315UNL    CL1 1693   0.690   1.057   0.278 -0.4724 -0.2658  0.1115
  315UNL    CL2 1694   0.572   1.282   0.447 -0.4896 -0.3456  0.1777
  315UNL      H 1695   0.458   1.118   0.308 -2.0985  0.6587 -1.2680
  316UNL     CL 1696   1.832   1.027   3.570  0.4325 -0.1476 -0.5507
  316UNL      C 1697   1.795   1.004   3.739 -0.2397  0.4121  0.3357
  316UNL    CL1 1698   1.832   0.824   3.783 -0.7122  0.2604  0.2545
  316UNL    CL2 1699   1.894   1.111   3.845 -0.0138 -0.2918  0.1544
  316UNL      H 1700   1.689   1.025   3.751 -0.6489 -1.6761  0.7160
  317UNL     CL 1701   1.712   2.446   1.748  0.0844 -0.0385 -0.0942
  317UNL      C 1702   1.788   2.332   1.859 -0.4557 -0.4599 -0.6488
  317UNL    CL1 1703   1.905   2.408   1.969  0.0223  0.2021 -0.1080
  317UNL    CL2 1704   1.666   2.256   1.963  0.3514 -0.6124  0.3366
  317UNL      H 1705   1.832   2.251   1.800  1.2954 -0.5105  0.6517
  318UNL     CL 1706   0.340   3.381   2.750 -0.1428 -0.6114 -0.0299
  318UNL      C 1707   0.183   3.328   2.686 -0.0475 -0.1469 -0.1044
  318UNL    CL1 1708   0.103   3.440   2.569  0.3404  0.2918 -0.0531
  318UNL    CL2 1709   0.201   3.168   2.608 -0.2979 -0.3799 -0.4049
  318UNL      H 1710   0.122   3.309   2.775 -1.3048 -2.4271 -1.3422
  319UNL     CL 1711   3.305   0.396   2.637  0.1664 -0.1251  0.1737
  319UNL      C 1712   3.141   0.478   2.608 -0.5900 -0.5778 -0.2179
  319UNL    CL1 1713   3.154   0.585   2.457  0.2750 -0.7588 -0.3174
  319UNL    CL2 1714   3.006   0.363   2.614  0.1678  0.3303 -0.0940
  319UNL      H 1715   3.126   0.543   2.695  2.4358 -0.2463  0.1649
  320UNL     CL 1716   2.181   0.247   3.845  0.1355  0.0696 -0.1726
  320UNL      C 1717   2.014   0.198   3.813 -0.7020 -0.2417 -0.3483
  320UNL    CL1 1718   1.899   0.336   3.815 -0.1473 -0.4311  0.0307
  320UNL    CL2 1719   1.999   0.104   3.658  0.5389  0.2520  0.2070
  320UNL      H 1720   1.988   0.137   3.900 -0.7427 -1.2181 -1.0271
  321UNL     CL 1721   3.182   1.555   1.726 -0.2225 -0.3128 -0.1616
  321UNL      C 1722   3.119   1.497   1.562 -0.5279 -0.4428 -0.3629
  321UNL    CL1 1723   2.939   1.469   1.572  0.0359  0.1725 -0.0121
  321UNL    CL2 1724   3.134   1.634   1.452  0.3337 -0.0604 -0.0705
  321UNL      H 1725   3.183   1.416   1.527  0.6962  1.3376 -2.4397
  322UNL     CL 1726   2.742   3.750   1.604 -0.2802 -0.1300 -0.2003
  322UNL      C 1727   2.566   3.749   1.636 -0.8391  0.4754  0.6617
  322UNL    CL1 1728   2.468   3.830   1.509 -0.0353  0.4649 -0.1536
  322UNL    CL2 1729   2.506   3.584   1.657 -0.1933 -0.1391 -0.0917
  322UNL      H 1730   2.551   3.804   1.729  1.7349 -1.4799  2.4023
  323UNL     CL 1731   0.305   0.428   2.860 -0.3155 -0.4560 -0.1234
  323UNL      C 1732   0.462   0.395   2.954  0.5000  0.2289 -0.0418
  323UNL    CL1 1733   0.455   0.226   3.031 -0.2743 -0.5133  0.1340
  323UNL    CL2 1734   0.600   0.389   2.827  0.3838 -0.0874 -0.1168
  323UNL      H 1735   0.474   0.483   3.018 -1.2001  0.7050 -0.3367
  324UNL     CL 1736   2.536   1.360   0.298  0.3201  0.2322 -0.0689
  324UNL      C 1737   2.374   1.405   0.238  0.3372  0.1882  0.6564
  324UNL    CL1 1738   2.265   1.262   0.213 -0.1256 -0.3842  0.2434
  324UNL    CL2 1739   2.299   1.523   0.344 -0.0224  0.1027 -0.0622
  324UNL      H 1740   2.393   1.454   0.142 -0.4002  1.8540  1.3244
  325UNL     CL 1741   2.920   0.513   0.472 -0.0178 -0.2012 -0.3979
  325UNL      C 1742   3.044   0.554   0.598 -0.5454  0.6169  0.1040
  325UNL    CL1 1743   3.203   0.486   0.557 -0.2949 -0.0846 -0.1709
  325UNL    CL2 1744   3.048   0.733   0.623  0.1295  0.1599 -0.3824
  325UNL      H 1745   3.008   0.520   0.695  0.9868  1.8336  1.1464
  326UNL     CL 1746   3.545   2.752   3.561 -0.2461 -0.1682  0.3217
  326UNL      C 1747   3.497   2.604   3.651 -0.3914 -0.1096 -0.3198
  326UNL    CL1 1748   3.513   2.646   3.824 -0.2252  0.3498  0.2430
  326UNL    CL2 1749   3.328   2.557   3.610  0.0229 -0.3552 -0.0823
  326UNL      H 1750   3.566   2.520   3.638  1.2746  1.1857 -0.1568
  327UNL     CL 1751   2.155   2.467   3.255 -0.1781  0.4310  0.2613
  327UNL      C 1752   2.236   2.308   3.223 -1.0100  0.2324 -0.2979
  327UNL    CL1 1753   2.404   2.334   3.173 -0.3733 -0.0356 -0.0257
  327UNL    CL2 1754   2.213   2.199   3.367  0.1765  0.1421  0.3240
  327UNL      H 1755   2.182   2.258   3.142 -0.8217  0.0767 -0.3289
  328UNL     CL 1756   2.069   3.671   1.130 -0.2706 -0.2947 -0.3232
  328UNL      C 1757   2.212   3.778   1.085  0.0555  0.6017 -0.5135
  328UNL    CL1 1758   2.369   3.690   1.088  0.6255  0.3055 -0.0141
  328UNL    CL2 1759   2.178   3.853   0.929  0.6875  0.0662 -0.3257
  328UNL      H 1760   2.227   3.846   1.170  3.7412 -0.4503 -0.1447
  329UNL     CL 1761   2.597   2.581   3.048 -0.1969 -0.2680 -0.4157
  329UNL      C 1762   2.450   2.694   3.044 -0.0391 -0.9064 -0.0345
  329UNL    CL1 1763   2.303   2.616   2.989  0.2957 -0.2852 -0.1608
  329UNL    CL2 1764   2.422   2.749   3.216  0.2160  0.1949  0.1381
  329UNL      H 1765   2.469   2.781   2.980 -1.8368 -1.1706 -0.9682
  330UNL     CL 1766   2.131   1.783   2.610 -0.2316 -0.0065  0.3065
  330UNL      C 1767   2.088   1.945   2.649 -0.9334 -0.2119 -0.3393
  330UNL    CL1 1768   1.910   1.963   2.660  0.3490 -0.1608  0.1393
  330UNL    CL2 1769   2.151   1.989   2.815  0.0496  0.5039  0.3052
  330UNL      H 1770   2.135   2.016   2.580 -0.0275 -1.0063 -0.5428
  331UNL     CL 1771   1.562   2.777   0.386 -0.4717 -0.4059  0.0936
  331UNL      C 1772   1.475   2.699   0.258 -0.3577  0.6424  0.5001
  331UNL    CL1 1773   1.397   2.544   0.311 -0.0265 -0.0943  0.1129
  331UNL    CL2 1774   1.354   2.829   0.212  0.2140  0.1620 -0.1121
  331UNL      H 1775   1.536   2.669   0.172  0.2876 -1.2871  1.5752
  332UNL     CL 1776   2.955   0.199   1.671 -0.0980  0.5093  0.7544
  332UNL      C 1777   2.837   0.339   1.682 -0.0588 -0.0197 -0.5046
  332UNL    CL1 1778   2.834   0.429   1.534  0.0423  0.0716 -0.3158
  332UNL    CL2 1779   2.675   0.283   1.718 -0.2572 -0.3971  0.0585
  332UNL      H 1780   2.870   0.415   1.754 -3.1859  1.5967 -0.5686
  333UNL     CL 1781   0.534   3.433   0.557 -0.0790  0.1585 -0.2269
  333UNL      C 1782   0.691   3.362   0.622 -0.6741  0.2639  0.5535
  333UNL    CL1 1783   0.660   3.239   0.742  0.2396 -0.1729  0.0401
  333UNL    CL2 1784   0.806   3.303   0.483  0.5019 -0.2598  0.0022
  333UNL      H 1785   0.742   3.451   0.662  0.0078 -0.4096  1.2221
  334UNL     CL 1786   3.722   1.709   3.059 -0.0849  0.1156 -0.0229
  334UNL      C 1787   3.818   1.570   3.064  0.2943  0.6307 -0.2126
  334UNL    CL1 1788   3.772   1.451   3.190 -0.5778 -0.1358 -0.6819
  334UNL    CL2 1789   3.796   1.472   2.909 -0.3199  0.0637 -0.0536
  334UNL      H 1790   3.923   1.592   3.086  0.8770 -2.4107  0.4877
  335UNL     CL 1791   3.570   3.066   3.657  0.0282  0.0946 -0.1004
  335UNL      C 1792   3.668   3.116   3.805 -0.4685 -0.0940  0.0430
  335UNL    CL1 1793   3.625   3.276   3.859  0.1893  0.3919 -0.2492
  335UNL    CL2 1794   3.655   2.999   3.939  0.1627 -0.0840 -0.0257
  335UNL      H 1795   3.768   3.126   3.762  0.2832 -0.5000  1.5903
  336UNL     CL 1796   3.446   2.957   2.156  0.1316  0.2157 -0.1644
  336UNL      C 1797   3.307   2.947   2.059  0.0637 -0.5774 -0.0068
  336UNL    CL1 1798   3.167   2.877   2.151 -0.4234  0.0183 -0.5736
  336UNL    CL2 1799   3.269   3.115   1.988 -0.3584  0.2080  0.2850
  336UNL      H 1800   3.334   2.869   1.988  3.1399  0.6654 -0.3748
  337UNL     CL 1801   0.117   3.473   0.888 -0.0277  0.3675 -0.0394
  337UNL      C 1802   0.142   3.329   0.770  0.4893 -0.3183 -0.3923
  337UNL    CL1 1803   0.192   3.186   0.864 -0.0610 -0.1379  0.4476
  337UNL    CL2 1804  -0.027   3.303   0.705  0.0692  0.4586 -0.4620
  337UNL      H 1805   0.220   3.355   0.697 -0.0711  0.4055 -0.7469
  338UNL     CL 1806   1.420   0.271   3.543 -0.0903 -0.1243  0.0088
  338UNL      C 1807   1.580   0.186   3.593  0.3728 -0.5021 -0.1779
  338UNL    CL1 1808   1.549   0.117   3.749 -0.2542  0.1765  0.2654
  338UNL    CL2 1809   1.605   0.050   3.469  0.2779  0.3304  0.1050
  338UNL      H 1810   1.662   0.258   3.595 -1.3305  1.5574  1.7098
  339UNL     CL 1811   3.544   3.482   1.640 -0.3732 -0.0082  0.0909
  339UNL      C 1812   3.590   3.343   1.746  0.2649 -0.3128 -0.1543
  339UNL    CL1 1813   3.484   3.353   1.890 -0.4183 -0.0088  0.4320
  339UNL    CL2 1814   3.567   3.185   1.666  0.0208 -0.1515 -0.0090
  339UNL      H 1815   3.696   3.356   1.768  0.0196  0.6077  0.5296
  340UNL     CL 1816   2.331   1.017   1.278  0.4397 -0.0118  0.0550
  340UNL      C 1817   2.219   0.988   1.134 -0.3094 -0.1046 -0.3866
  340UNL    CL1 1818   2.217   0.825   1.075  0.2286  0.0378  0.1479
  340UNL    CL2 1819   2.047   1.035   1.179 -0.3881 -0.1141 -0.1707
  340UNL      H 1820   2.237   1.053   1.048 -2.3558 -1.1141 -1.6613
  341UNL     CL 1821   3.832   3.317   2.168 -0.3451 -0.3544  0.0353
  341UNL      C 1822   3.713   3.201   2.219 -0.2606 -0.3648 -0.7869
  341UNL    CL1 1823   3.775   3.116   2.379  0.2509  0.1179 -0.1068
  341UNL    CL2 1824   3.551   3.269   2.230  0.1212 -0.2161 -0.2191
  341UNL      H 1825   3.710   3.119   2.146  1.2124 -0.4442 -0.8024
  342UNL     CL 1826   0.685   3.257   2.808  0.3184  0.2772 -0.4460
  342UNL      C 1827   0.619   3.140   2.687  0.2907  0.7190 -0.1569
  342UNL    CL1 1828   0.768   3.064   2.598 -0.1039 -0.0313 -0.6635
  342UNL    CL2 1829   0.503   3.012   2.751 -0.0071  0.0455 -0.1645
  342UNL      H 1830   0.566   3.191   2.605  0.9592 -1.1892 -1.8445
  343UNL     CL 1831   0.731   1.602   1.424  0.3902 -0.1622 -0.1256
  343UNL      C 1832   0.713   1.642   1.252  0.4649 -0.2135  0.2815
  343UNL    CL1 1833   0.702   1.820   1.244  0.5056  0.0585 -0.0028
  343UNL    CL2 1834   0.854   1.566   1.159  0.2526 -0.0663  0.2926
  343UNL      H 1835   0.620   1.598   1.214  0.5684 -1.0441  0.9805
  344UNL     CL 1836   2.176   0.514   1.636  0.4164  0.0333  0.1524
  344UNL      C 1837   2.276   0.661   1.600  0.4688  0.5471  0.1978
  344UNL    CL1 1838   2.431   0.640   1.692 -0.0243  0.0521  0.0703
  344UNL    CL2 1839   2.278   0.674   1.416 -0.3144  0.0733  0.1329
  344UNL      H 1840   2.222   0.750   1.631 -0.5415 -0.8176  2.6844
  345UNL     CL 1841   1.728   1.221   0.298  0.6041 -0.0606 -0.2803
  345UNL      C 1842   1.759   1.396   0.293 -0.1215 -0.3023  0.8423
  345UNL    CL1 1843   1.797   1.453   0.455 -0.0345 -0.0583  0.2601
  345UNL    CL2 1844   1.894   1.447   0.189  0.2547 -0.2054  0.2688
  345UNL      H 1845   1.666   1.441   0.256  0.5566 -0.1391 -0.7348
  346UNL     CL 1846   3.715   1.420   1.484  0.1363  0.3545  0.2466
  346UNL      C 1847   3.539   1.390   1.445 -0.4675  0.3999  0.4546
  346UNL    CL1 1848   3.450   1.393   1.612  0.3433  0.0547 -0.1412
  346UNL    CL2 1849   3.459   1.503   1.321  0.4115  0.0455 -0.0268
  346UNL      H 1850   3.523   1.289   1.405 -5.1988  0.9903  0.2823
  347UNL     CL 1851   1.543   2.159   1.418 -0.2248  0.2936  0.2420
  347UNL      C 1852   1.473   2.322   1.408 -0.0941 -0.4552  0.1776
  347UNL    CL1 1853   1.399   2.356   1.564 -0.1604 -0.3123  0.4304
  347UNL    CL2 1854   1.611   2.443   1.385  0.4542 -0.1685  0.0755
  347UNL      H 1855   1.406   2.321   1.321 -1.9118 -0.1674  1.5270
  348UNL     CL 1856   3.365   1.932   3.057 -0.0253  0.3582 -0.0508
  348UNL      C 1857   3.390   1.943   3.228  0.2407 -0.3067 -0.3638
  348UNL    CL1 1858   3.383   2.122   3.258  0.0222  0.0167 -0.3042
  348UNL    CL2 1859   3.256   1.850   3.314 -0.3734  0.1695 -0.1966
  348UNL      H 1860   3.485   1.898   3.257 -0.1835 -1.7237 -1.0601
  349UNL     CL 1861   0.243   2.774   3.374 -0.1911 -0.0069 -0.0586
  349UNL      C 1862   0.069   2.772   3.379  0.4782  0.2830 -0.4370
  349UNL    CL1 1863  -0.000   2.607   3.363  0.2554  0.1193 -0.2465
  349UNL    CL2 1864   0.011   2.868   3.520 -0.3879 -0.1570 -0.1777
  349UNL      H 1865   0.030   2.818   3.287  0.8859 -0.6803 -1.1056
  350UNL     CL 1866   2.501   1.670   0.831  0.3719 -0.2743 -0.0881
  350UNL      C 1867   2.413   1.672   0.674 -0.1882  0.2255  0.0560
  350UNL    CL1 1868   2.237   1.686   0.698 -0.3942  0.3244 -0.1340
  350UNL    CL2 1869   2.468   1.820   0.593 -0.2576  0.6145  0.4613
  350UNL      H 1870   2.431   1.583   0.613  1.0688  0.5487 -0.0808
  351UNL     CL 1871   1.258   3.172   2.263  0.1388  0.0344  0.0875
  351UNL      C 1872   1.090   3.124   2.215  0.8559  0.5897  0.5489
  351UNL    CL1 1873   0.971   3.230   2.301  0.2812  0.0234 -0.3140
  351UNL    CL2 1874   1.061   3.139   2.027 -0.4339  0.2010 -0.3798
  351UNL      H 1875   1.069   3.024   2.254  0.7252  0.7970  1.0275
  352UNL     CL 1876   2.980   3.664   2.991  0.3453  0.1611 -0.0106
  352UNL      C 1877   2.944   3.609   2.820 -0.0363  0.8846  0.1182
  352UNL    CL1 1878   3.052   3.477   2.766  0.2817 -0.0351 -0.0596
  352UNL    CL2 1879   2.769   3.565   2.800  0.1813  0.0983 -0.0468
  352UNL      H 1880   2.958   3.690   2.748  1.7138 -0.7510 -1.4788
  353UNL     CL 1881   0.267   1.523   3.573  0.1641 -0.0647  0.1429
  353UNL      C 1882   0.414   1.534   3.662  1.0587 -0.2570 -0.3293
  353UNL    CL1 1883   0.546   1.613   3.563 -0.1541  0.1822 -0.4160
  353UNL    CL2 1884   0.398   1.620   3.817  0.0076 -0.1360 -0.3136
  353UNL      H 1885   0.439   1.430   3.686  1.9807  0.3120  1.3507
  354UNL     CL 1886   2.164   3.538   1.842  0.0108  0.3096 -0.2937
  354UNL      C 1887   2.190   3.437   1.705 -0.3851  0.2223  0.4511
  354UNL    CL1 1888   2.187   3.269   1.756  0.1386 -0.5620  0.2749
  354UNL    CL2 1889   2.057   3.461   1.585  0.1260 -0.2948 -0.1364
  354UNL      H 1890   2.288   3.458   1.661 -0.8435  1.8682  0.1604
  355UNL     CL 1891   1.118   2.836   3.209  0.3271  0.2508  0.2576
  355UNL      C 1892   1.111   2.816   3.039  0.2604  0.4040  0.2805
  355UNL    CL1 1893   1.042   2.654   2.994  0.1037 -0.1876  0.4560
  355UNL    CL2 1894   0.998   2.930   2.963  0.2921  0.2840  0.1678
  355UNL      H 1895   1.209   2.834   2.995  0.5529  1.8964  1.4911
  356UNL     CL 1896   2.385   2.184   3.690 -0.3452  0.0404  0.9079
  356UNL      C 1897   2.474   2.336   3.649  0.1973  0.0293  0.2663
  356UNL    CL1 1898   2.586   2.302   3.513  0.1523  0.1346 -0.0194
  356UNL    CL2 1899   2.362   2.482   3.619  0.3976 -0.4551  0.3104
  356UNL      H 1900   2.535   2.362   3.736 -1.3654  0.0191  1.4112
  357UNL     CL 1901   1.862   2.738   0.620  0.2827  0.0217  0.0310
  357UNL      C 1902   1.754   2.833   0.731  0.4558  0.2159  0.6939
  357UNL    CL1 1903   1.716   2.984   0.662 -0.0467 -0.4289 -0.2029
  357UNL    CL2 1904   1.605   2.741   0.784  0.0207  0.2316  0.1494
  357UNL      H 1905   1.821   2.863   0.812 -1.6503  1.3826  2.0982
  358UNL     CL 1906   1.691   3.643   0.029  0.8285  0.1220 -0.2986
  358UNL      C 1907   1.768   3.487   0.056  0.2291 -0.0042  0.5855
  358UNL    CL1 1908   1.935   3.479  -0.004 -0.0591 -0.1360 -0.0817
  358UNL    CL2 1909   1.760   3.445   0.229  0.3888 -0.0016  0.3109
  358UNL      H 1910   1.717   3.411  -0.005 -1.3379  0.9302  0.6705
  359UNL     CL 1911   2.429   1.300   0.636  0.0853 -0.0884  0.1485
  359UNL      C 1912   2.557   1.223   0.723 -0.3719 -0.0248  0.4359
  359UNL    CL1 1913   2.586   1.319   0.866 -0.0487 -0.1397  0.2608
  359UNL    CL2 1914   2.506   1.054   0.758 -0.3619  0.2587 -0.1126
  359UNL      H 1915   2.648   1.233   0.664 -0.4091 -0.4411  0.3062
  360UNL     CL 1916   1.365   3.201   1.822 -0.2344 -0.0245 -0.5764
  360UNL      C 1917   1.464   3.058   1.830 -0.0445  0.6074  0.2588
  360UNL    CL1 1918   1.612   3.089   1.933  0.4671 -0.1544 -0.0719
  360UNL    CL2 1919   1.372   2.915   1.876  0.2477  0.1922 -0.1694
  360UNL      H 1920   1.502   3.045   1.728  1.3242 -0.0862  0.8187
  361UNL     CL 1921   2.678   3.351   3.292  0.1902 -0.0804 -0.1533
  361UNL      C 1922   2.533   3.393   3.188 -0.4048 -0.2508 -0.6875
  361UNL    CL1 1923   2.545   3.564   3.125 -0.1631 -0.0649 -0.1448
  361UNL    CL2 1924   2.538   3.268   3.058 -0.1455  0.2520  0.1829
  361UNL      H 1925   2.442   3.379   3.249  0.1352 -2.4171 -0.2847
  362UNL     CL 1926   2.451   3.652   2.080 -0.5117  0.0396 -0.0916
  362UNL      C 1927   2.433   3.826   2.041 -0.0681 -0.4893 -0.1076
  362UNL    CL1 1928   2.593   3.915   2.030  0.4437  0.1129  0.0520
  362UNL    CL2 1929   2.346   3.846   1.879  0.0711 -0.1393 -0.4614
  362UNL      H 1930   2.369   3.878   2.113  1.2824  4.1363 -1.9012
  363UNL     CL 1931   0.946   3.168   1.013 -0.3608  0.1025 -0.0939
  363UNL      C 1932   1.036   3.298   0.934 -0.1811 -0.5376 -0.1917
  363UNL    CL1 1933   1.205   3.321   1.015  0.0162 -0.0068 -0.0780
  363UNL    CL2 1934   1.047   3.262   0.758  0.1040 -0.0678 -0.2956
  363UNL      H 1935   0.973   3.386   0.951  1.0152 -0.0518  2.3136
  364UNL     CL 1936   1.070   2.544   0.187  0.2974 -0.4137  0.0992
  364UNL      C 1937   0.893   2.516   0.148 -0.3147  0.2136  0.2567
  364UNL    CL1 1938   0.809   2.455   0.294 -0.0326 -0.5890 -0.3199
  364UNL    CL2 1939   0.820   2.668   0.092  0.0774 -0.1960 -0.5232
  364UNL      H 1940   0.883   2.442   0.067  2.5546  0.9715 -0.9191
  365UNL     CL 1941   2.225   2.824   0.016  0.4005 -0.1374  0.0934
  365UNL      C 1942   2.144   2.832  -0.144  0.2755  1.3510  0.1000
  365UNL    CL1 1943   2.090   3.001  -0.149  0.2888  0.1256 -0.2146
  365UNL    CL2 1944   2.265   2.814  -0.279  0.0202 -0.2462 -0.1365
  365UNL      H 1945   2.064   2.759  -0.163  1.8335 -0.4176  0.0472
  366UNL     CL 1946   0.013   0.784   1.707  0.0324 -0.4679  0.2283
  366UNL      C 1947  -0.023   0.805   1.535  0.7836  0.0701  0.5065
  366UNL    CL1 1948   0.092   0.908   1.448  0.0620 -0.0462  0.4569
  366UNL    CL2 1949  -0.031   0.639   1.455  0.1782  0.4617 -0.5677
  366UNL      H 1950  -0.121   0.851   1.518  0.9411  0.2349  0.0556
  367UNL     CL 1951   0.700   0.668   3.095  0.0389 -0.0461 -0.3232
  367UNL      C 1952   0.855   0.650   3.002 -0.2728  0.3486  0.6804
  367UNL    CL1 1953   0.943   0.495   3.031  0.2864 -0.1848  0.5705
  367UNL    CL2 1954   0.829   0.664   2.829  0.2091 -0.2054  0.1896
  367UNL      H 1955   0.915   0.735   3.037 -1.0234  1.5181 -0.7483
  368UNL     CL 1956   3.179   0.313   2.006 -0.2190 -0.1192  0.3066
  368UNL      C 1957   3.129   0.306   2.182  0.0326 -0.3705 -0.2951
  368UNL    CL1 1958   2.946   0.304   2.176  0.2820 -0.0115  0.1824
  368UNL    CL2 1959   3.180   0.167   2.289 -0.2482  0.1009  0.0036
  368UNL      H 1960   3.166   0.394   2.235 -2.7976  1.6239 -1.3940
  369UNL     CL 1961   0.243   0.377   3.616 -0.0224  0.0966 -0.3006
  369UNL      C 1962   0.228   0.347   3.438  0.1466  0.5712 -0.1488
  369UNL    CL1 1963   0.325   0.462   3.336  0.1890 -0.0746 -0.2028
  369UNL    CL2 1964   0.275   0.179   3.391  0.1589 -0.0383 -0.2049
  369UNL      H 1965   0.122   0.361   3.412 -0.4050 -2.2192  0.2455
  370UNL     CL 1966   2.549   0.210   1.096 -0.0661 -0.3625 -0.3298
  370UNL      C 1967   2.529   0.319   1.242 -0.2609  0.9949  0.2649
  370UNL    CL1 1968   2.521   0.493   1.193  0.0441  0.2562  0.4677
  370UNL    CL2 1969   2.376   0.261   1.322 -0.0088 -0.4331 -0.3609
  370UNL      H 1970   2.615   0.293   1.306 -0.6859 -2.1894 -0.3189
  371UNL     CL 1971   0.507   2.922   0.840  0.1914 -0.5289 -0.0017
  371UNL      C 1972   0.404   2.857   0.970 -0.1866 -0.3047  0.6548
  371UNL    CL1 1973   0.376   2.985   1.100  0.0947 -0.2661  0.0143
  371UNL    CL2 1974   0.245   2.808   0.895  0.0725 -0.0649  0.1598
  371UNL      H 1975   0.454   2.769   1.012  0.4994 -0.5097 -0.5321
  372UNL     CL 1976   0.123   2.618   2.241  0.1266 -0.2610 -0.1089
  372UNL      C 1977   0.234   2.757   2.292  0.6396  0.0539  0.4662
  372UNL    CL1 1978   0.190   2.795   2.453  0.0677  0.2066 -0.1708
  372UNL    CL2 1979   0.403   2.725   2.279  0.1978  0.5681 -0.0771
  372UNL      H 1980   0.206   2.836   2.222  2.0558 -0.3764 -0.6305
  373UNL     CL 1981   2.003   0.108   2.500  0.0473  0.0350 -0.4369
  373UNL      C 1982   1.924   0.162   2.652 -0.1126 -0.2969  0.1255
  373UNL    CL1 1983   1.832   0.310   2.611 -0.0715 -0.1798 -0.1708
  373UNL    CL2 1984   1.825   0.034   2.711 -0.2240 -0.2910 -0.1863
  373UNL      H 1985   2.006   0.182   2.721  0.5369 -0.1522 -0.6731
  374UNL     CL 1986   0.115   2.305   0.737 -0.2414  0.2788  0.1540
  374UNL      C 1987   0.076   2.459   0.646  0.1981  0.2161 -0.3360
  374UNL    CL1 1988   0.208   2.583   0.661  0.1614 -0.3620 -0.1297
  374UNL    CL2 1989   0.050   2.429   0.468  0.4598 -0.3417  0.5373
  374UNL      H 1990  -0.012   2.493   0.703  1.5634  0.9739  1.4500
  375UNL     CL 1991   1.353   2.195   2.708 -0.1366 -0.0767  0.0390
  375UNL      C 1992   1.446   2.339   2.643  0.2503 -0.3555 -0.0585
  375UNL    CL1 1993   1.483   2.305   2.468 -0.4595 -0.1647  0.1186
  375UNL    CL2 1994   1.332   2.482   2.672 -0.5192  0.7665 -0.3123
  375UNL      H 1995   1.538   2.347   2.702  0.4437 -3.6185  0.2992
  376UNL     CL 1996   3.694   0.577   1.083  0.0338  0.2688 -0.0152
  376UNL      C 1997   3.605   0.460   0.978 -0.1972  0.1304  0.5877
  376UNL    CL1 1998   3.578   0.540   0.820 -0.0315 -0.0676  0.1775
  376UNL    CL2 1999   3.706   0.312   0.952 -0.2040  0.0117 -0.0457
  376UNL      H 2000   3.511   0.432   1.026 -0.4526 -0.2452 -0.1248
  377UNL     CL 2001   2.983   2.577   3.393  0.1585 -0.2474 -0.2149
  377UNL      C 2002   2.869   2.595   3.532 -0.5051 -0.3740 -0.6525
  377UNL    CL1 2003   2.963   2.668   3.676 -0.3038  0.2953 -0.0200
  377UNL    CL2 2004   2.727   2.694   3.482  0.3355  0.0074 -0.1140
  377UNL      H 2005   2.835   2.493   3.553 -0.1055 -0.4722 -0.4873
  378UNL     CL 2006   1.932   2.388   0.153  0.3520  0.0054 -0.1240
  378UNL      C 2007   1.929   2.413   0.327 -0.2460 -0.5596 -0.3220
  378UNL    CL1 2008   2.057   2.531   0.375 -0.0892  0.3659 -0.0996
  378UNL    CL2 2009   1.758   2.456   0.372 -0.0106  0.1971 -0.2074
  378UNL      H 2010   1.952   2.315   0.371 -0.2412  0.6316  2.5282
  379UNL     CL 2011   3.314   0.573   3.123 -0.0215  0.3790 -0.2262
  379UNL      C 2012   3.288   0.491   3.285 -0.4166  0.6757 -0.1427
  379UNL    CL1 2013   3.450   0.452   3.351  0.0507 -0.4085 -0.1829
  379UNL    CL2 2014   3.216   0.614   3.392 -0.1436  0.1281  0.1488
  379UNL      H 2015   3.221   0.405   3.270  0.9676 -0.1229 -2.1678
  380UNL     CL 2016   1.910   0.675   1.417 -0.5141  0.0413 -0.0654
  380UNL      C 2017   1.785   0.769   1.338  0.7012  0.5105 -0.2345
  380UNL    CL1 2018   1.798   0.742   1.164  0.0502  0.2017 -0.4831
  380UNL    CL2 2019   1.627   0.711   1.411 -0.1337  0.3179  0.1486
  380UNL      H 2020   1.783   0.877   1.357 -0.6105  0.2468  1.2483
  381UNL     CL 2021   2.389   2.615   0.519 -0.2857 -0.5775 -0.0517
  381UNL      C 2022   2.406   2.788   0.463  0.8133  0.6076  0.4611
  381UNL    CL1 2023   2.573   2.825   0.412 -0.1297  0.2413  0.5735
  381UNL    CL2 2024   2.299   2.804   0.321 -0.0509  0.0224  0.2844
  381UNL      H 2025   2.378   2.857   0.542 -0.5019  0.5207  0.0947
  382UNL     CL 2026   1.257   2.011   1.545 -0.3861 -0.0395 -0.1067
  382UNL      C 2027   1.216   1.840   1.557 -0.8515  0.3158 -0.2287
  382UNL    CL1 2028   1.153   1.767   1.415 -0.4149 -0.3107 -0.5061
  382UNL    CL2 2029   1.367   1.746   1.608  0.0765 -0.0723 -0.2734
  382UNL      H 2030   1.143   1.830   1.638  0.6942  1.1315  1.3415
  383UNL     CL 2031   0.375   2.222   1.454  0.1020  0.0774 -0.1739
  383UNL      C 2032   0.280   2.110   1.557 -1.2339 -0.0523  0.3841
  383UNL    CL1 2033   0.106   2.150   1.520 -0.0736  0.4410 -0.4078
  383UNL    CL2 2034   0.315   1.940   1.515  0.0426  0.1992 -0.0151
  383UNL      H 2035   0.299   2.124   1.664  0.9389 -2.3845  0.3877
  384UNL     CL 2036   1.927   1.390   1.013 -0.2434  0.0085  0.0490
  384UNL      C 2037   2.070   1.441   0.918 -0.1530 -0.0029  0.9531
  384UNL    CL1 2038   2.229   1.372   0.992  0.1673  0.2211  0.3124
  384UNL    CL2 2039   2.047   1.369   0.749  0.1364  0.0064 -0.1439
  384UNL      H 2040   2.072   1.551   0.913 -2.9543  0.1561  1.5900
  385UNL     CL 2041   0.785   0.324   1.736  0.3599  0.0362 -0.2470
  385UNL      C 2042   0.918   0.243   1.820 -0.4788 -0.8162 -0.0126
  385UNL    CL1 2043   0.910   0.074   1.769 -0.2481 -0.1642 -0.0766
  385UNL    CL2 2044   1.076   0.321   1.776  0.0873 -0.0787  0.1718
  385UNL      H 2045   0.905   0.254   1.929 -0.6079 -2.5948  0.1942
  386UNL     CL 2046   1.999   2.286   2.486 -0.0588  0.1950  0.2066
  386UNL      C 2047   1.945   2.316   2.324  0.7797  0.2814  0.5049
  386UNL    CL1 2048   1.885   2.158   2.254  0.1119 -0.1605  0.0081
  386UNL    CL2 2049   1.804   2.434   2.328  0.0000  0.6297 -0.6195
  386UNL      H 2050   2.026   2.363   2.268  0.5572 -0.2220 -0.2579
  387UNL     CL 2051   0.264   2.768   1.623  0.4485 -0.0253 -0.4868
  387UNL      C 2052   0.136   2.705   1.739 -0.2970 -0.0083 -0.1283
  387UNL    CL1 2053   0.184   2.728   1.920  0.3962 -0.7353  0.0435
  387UNL    CL2 2054  -0.019   2.787   1.710 -0.0693 -0.1492 -0.0112
  387UNL      H 2055   0.123   2.598   1.717 -0.8311  0.2831 -1.2914
  388UNL     CL 2056   1.202   0.037   2.146  0.1622 -0.4566 -0.0992
  388UNL      C 2057   1.161   0.147   2.282  0.7640  0.5914 -0.7189
  388UNL    CL1 2058   1.124   0.309   2.235  0.0850  0.3787  0.7850
  388UNL    CL2 2059   1.020   0.071   2.360  0.7039 -0.1246 -0.0699
  388UNL      H 2060   1.246   0.143   2.350  2.1788  0.4500 -2.4210
  389UNL     CL 2061   1.685   0.116   2.184 -0.1741  0.1258 -0.0037
  389UNL      C 2062   1.748   0.258   2.106 -0.1128  0.5758 -0.0543
  389UNL    CL1 2063   1.697   0.407   2.185  0.6648  0.2352 -0.0255
  389UNL    CL2 2064   1.922   0.252   2.095 -0.2073  0.1846  0.1878
  389UNL      H 2065   1.717   0.250   2.001  1.1148  0.2679 -0.4107
  390UNL     CL 2066   2.387   2.261   1.589  0.1018 -0.0876  0.0021
  390UNL      C 2067   2.328   2.149   1.724  0.4444 -0.3705  0.3208
  390UNL    CL1 2068   2.241   2.256   1.849 -0.0007 -0.3668  0.6130
  390UNL    CL2 2069   2.217   2.010   1.665 -0.1156  0.1435  0.3609
  390UNL      H 2070   2.420   2.107   1.765  0.3055  0.8507  2.0071
  391UNL     CL 2071   2.888   1.078   2.332  0.1871  0.3078 -0.0040
  391UNL      C 2072   2.946   0.907   2.317  0.3260  0.9631  0.3970
  391UNL    CL1 2073   2.836   0.807   2.217  0.3915  0.3480 -0.1177
  391UNL    CL2 2074   3.101   0.905   2.241 -0.0361 -0.3776 -0.3187
  391UNL      H 2075   2.950   0.865   2.417  1.4739  1.0376  0.3896
  392UNL     CL 2076   2.310   0.947   2.112 -0.3591  0.0690  0.3812
  392UNL      C 2077   2.350   1.055   2.239 -0.2902 -0.5314 -0.1097
  392UNL    CL1 2078   2.225   1.055   2.365  0.0801  0.2910 -0.1207
  392UNL    CL2 2079   2.510   1.031   2.309  0.3966  0.0467 -0.1489
  392UNL      H 2080   2.354   1.156   2.197  0.3872 -0.9591 -1.1185
  393UNL     CL 2081   2.783   0.666   3.553 -0.1780  0.0904 -0.0440
  393UNL      C 2082   2.651   0.773   3.616 -0.2320 -0.5323  0.0737
  393UNL    CL1 2083   2.583   0.706   3.766  0.1770 -0.3092  0.0730
  393UNL    CL2 2084   2.706   0.931   3.662  0.0521 -0.0151  0.2310
  393UNL      H 2085   2.573   0.778   3.540 -1.6647 -2.0190  1.3704
  394UNL     CL 2086   0.113   1.307   2.606 -0.6390 -0.2609  0.0853
  394UNL      C 2087   0.205   1.209   2.715  0.3119  0.5093 -0.2049
  394UNL    CL1 2088   0.340   1.298   2.804  0.0949 -0.3299 -0.4624
  394UNL    CL2 2089   0.105   1.125   2.837  0.0343  0.0998  0.2858
  394UNL      H 2090   0.255   1.140   2.646  0.1304  1.8509 -1.7224
  395UNL     CL 2091   2.886   1.778   2.856 -0.5114 -0.2021  0.1305
  395UNL      C 2092   3.029   1.890   2.871 -0.4354  0.5771  0.2207
  395UNL    CL1 2093   3.153   1.849   2.744 -0.2023  0.2507 -0.1167
  395UNL    CL2 2094   2.975   2.058   2.843  0.4288 -0.6794  0.3375
  395UNL      H 2095   3.078   1.874   2.968 -1.0376  0.3273  0.4889
  396UNL     CL 2096   2.272   2.196   2.204  0.1075  0.0337 -0.2701
  396UNL      C 2097   2.416   2.280   2.125  0.1797 -0.0568  0.8639
  396UNL    CL1 2098   2.497   2.389   2.232 -0.1564  0.1423  0.2423
  396UNL    CL2 2099   2.517   2.150   2.072  0.0687 -0.1634  0.1680
  396UNL      H 2100   2.381   2.332   2.035  0.2013 -2.4918 -0.6629
  397UNL     CL 2101   2.232   0.925   0.315  0.0871 -0.1361 -0.0213
  397UNL      C 2102   2.175   0.835   0.166  0.3029 -0.2944 -0.3212
  397UNL    CL1 2103   2.246   0.886   0.015  0.1614  0.6958 -0.0799
  397UNL    CL2 2104   2.207   0.662   0.186 -0.4024 -0.0421  0.2176
  397UNL      H 2105   2.065   0.834   0.161  0.1752  0.5031  1.5194
  398UNL     CL 2106   3.429   0.919   2.527  0.1048  0.1235  0.2704
  398UNL      C 2107   3.544   1.054   2.564 -0.7462 -0.4128 -0.1403
  398UNL    CL1 2108   3.685   0.976   2.661 -0.4955 -0.1006 -0.4278
  398UNL    CL2 2109   3.614   1.142   2.426  0.1177  0.1411  0.2052
  398UNL      H 2110   3.500   1.133   2.625  1.6116  1.5110 -0.7396
  399UNL     CL 2111   2.986   3.058   3.099 -0.1246 -0.0641 -0.0702
  399UNL      C 2112   2.911   2.927   3.208 -0.5717  0.2936 -0.3107
  399UNL    CL1 2113   2.967   2.946   3.380 -0.0498 -0.1400  0.1289
  399UNL    CL2 2114   2.730   2.939   3.221  0.6029  0.1834  0.0688
  399UNL      H 2115   2.928   2.822   3.181 -0.3665 -0.2339  1.6929
  400UNL     CL 2116   1.282   1.408   1.557  0.3066  0.3625  0.1663
  400UNL      C 2117   1.269   1.349   1.734 -0.2243  0.1022  0.7773
  400UNL    CL1 2118   1.125   1.252   1.773  0.1962 -0.0196  0.2947
  400UNL    CL2 2119   1.424   1.260   1.782 -0.0981 -0.2146 -0.2132
  400UNL      H 2120   1.263   1.440   1.794  0.7622 -0.1685  1.3194
  401UNL     CL 2121   3.582   0.540   2.481  0.2466  0.1262 -1.0028
  401UNL      C 2122   3.636   0.414   2.357  0.1316  0.1942  0.1013
  401UNL    CL1 2123   3.685   0.255   2.423  0.0134  0.2749 -0.0114
  401UNL    CL2 2124   3.500   0.398   2.232  0.0546 -0.1072 -0.1989
  401UNL      H 2125   3.716   0.468   2.306  0.8385 -2.2978 -1.6019
  402UNL     CL 2126   1.905   2.055   3.192  0.0679 -0.4043  0.0176
  402UNL      C 2127   1.784   2.117   3.314 -0.9588  0.7797 -0.1971
  402UNL    CL1 2128   1.830   2.291   3.360  0.1099 -0.3551 -0.3149
  402UNL    CL2 2129   1.624   2.112   3.238  0.0881  0.1324  0.3504
  402UNL      H 2130   1.774   2.057   3.405  0.2986 -0.4656 -0.8555
  403UNL     CL 2131   2.873   3.210   3.669  0.3753  0.1816  0.0907
  403UNL      C 2132   2.818   3.292   3.809  0.5257  0.4058 -0.5439
  403UNL    CL1 2133   2.900   3.201   3.946 -0.2622  0.4575 -0.2317
  403UNL    CL2 2134   2.868   3.465   3.800  0.3305  0.2321 -0.3096
  403UNL      H 2135   2.709   3.283   3.814  0.6507 -0.8862  2.5546
  404UNL     CL 2136   3.447   1.684   1.004 -0.3600  0.2480  0.0545
  404UNL      C 2137   3.420   1.637   0.822 -0.6862  0.3184  0.1319
  404UNL    CL1 2138   3.407   1.457   0.797  0.0497  0.2360 -0.1031
  404UNL    CL2 2139   3.266   1.720   0.750 -0.1352 -0.4937 -0.2131
  404UNL      H 2140   3.501   1.675   0.759  0.4258  2.3983  2.5971
  405UNL     CL 2141   2.442   1.224   3.790  0.1056  0.3716 -0.0225
  405UNL      C 2142   2.324   1.314   3.676 -0.2654 -0.6448 -0.0215
  405UNL    CL1 2143   2.172   1.362   3.758  0.6803  0.1517  0.0237
  405UNL    CL2 2144   2.404   1.462   3.591 -0.1719  0.2729 -0.0414
  405UNL      H 2145   2.292   1.243   3.599  1.7905 -0.8433 -0.7670
  406UNL     CL 2146   0.957   3.354   2.626  0.2219 -0.0261  0.0262
  406UNL      C 2147   1.056   3.510   2.644 -0.5099 -0.1612  0.6552
  406UNL    CL1 2148   0.950   3.659   2.657  0.1912 -0.3076 -0.1259
  406UNL    CL2 2149   1.146   3.493   2.804  0.1609  0.0300 -0.2164
  406UNL      H 2150   1.126   3.530   2.562 -0.6074  0.7765  0.7825
  407UNL     CL 2151   1.082   0.588   0.381 -0.1894  0.6534  0.0850
  407UNL      C 2152   0.913   0.639   0.335 -1.1003  0.0674  0.3451
  407UNL    CL1 2153   0.827   0.498   0.271  0.2000 -0.6372 -0.4178
  407UNL    CL2 2154   0.819   0.705   0.476  0.6928 -0.3174 -0.3367
  407UNL      H 2155   0.922   0.712   0.255  1.2702 -1.3842 -0.8233
  408UNL     CL 2156   3.679   0.020   2.754 -0.6285 -0.2468 -0.0424
  408UNL      C 2157   3.596   0.178   2.763  0.3009 -0.1858 -0.3255
  408UNL    CL1 2158   3.476   0.174   2.893  0.2151  0.0086 -0.2577
  408UNL    CL2 2159   3.706   0.312   2.774  0.0664  0.1110  0.1452
  408UNL      H 2160   3.546   0.170   2.666  1.6331 -1.8823 -0.9172
  409UNL     CL 2161   0.577   2.170   0.499 -0.4243 -0.0231 -0.4640
  409UNL      C 2162   0.475   2.319   0.525  0.0574  0.3650  0.0586
  409UNL    CL1 2163   0.570   2.447   0.614  0.0846  0.1528  0.1926
  409UNL    CL2 2164   0.409   2.364   0.361  0.0124 -0.3364 -0.3124
  409UNL      H 2165   0.388   2.295   0.587 -1.4894 -0.2319 -2.2032
  410UNL     CL 2166   1.460   2.607   3.285  0.0740 -0.3762 -0.2247
  410UNL      C 2167   1.357   2.473   3.225  0.2343 -0.5592 -0.6497
  410UNL    CL1 2168   1.390   2.454   3.049 -0.8209 -0.1296  0.2777
  410UNL    CL2 2169   1.393   2.324   3.320  0.1943  0.2881 -0.3292
  410UNL      H 2170   1.251   2.496   3.240 -0.0468 -0.2812 -2.7246
  411UNL     CL 2171   3.110   0.347   3.635 -0.0978 -0.2495  0.5926
  411UNL      C 2172   3.107   0.201   3.754 -0.1597 -0.1662  0.4111
  411UNL    CL1 2173   2.941   0.147   3.779 -0.1255  0.2867  0.1421
  411UNL    CL2 2174   3.204   0.068   3.669  0.0952 -0.6142  0.5829
  411UNL      H 2175   3.161   0.229   3.845 -0.4955 -2.4973  1.4044
  412UNL     CL 2176   2.416   3.622   0.444 -0.2446  0.2001  0.2189
  412UNL      C 2177   2.493   3.473   0.388  0.3018 -0.4298 -0.1760
  412UNL    CL1 2178   2.641   3.509   0.291 -0.3641 -0.5868  0.3000
  412UNL    CL2 2179   2.554   3.365   0.528  0.4811 -0.0987  0.0343
  412UNL      H 2180   2.419   3.423   0.326  1.7192 -1.1365 -1.3642
  413UNL     CL 2181   2.017   3.800   0.532 -0.0748 -0.2984  0.0035
  413UNL      C 2182   1.865   3.766   0.624 -0.2462 -0.5358  0.3686
  413UNL    CL1 2183   1.854   3.872   0.765 -0.4722 -0.4501 -0.1065
  413UNL    CL2 2184   1.716   3.796   0.519  0.1350  0.1948 -0.1284
  413UNL      H 2185   1.866   3.664   0.663  0.1578  0.3418  2.8782
  414UNL     CL 2186   3.600   0.112   1.524 -0.0769 -0.0933  0.5837
  414UNL      C 2187   3.571   0.257   1.621  0.0001 -0.5493 -0.2263
  414UNL    CL1 2188   3.717   0.294   1.718  0.1861  0.0204 -0.2251
  414UNL    CL2 2189   3.532   0.399   1.528 -0.2624 -0.4227  0.2141
  414UNL      H 2190   3.483   0.235   1.683 -0.2301 -2.9365 -1.2820
  415UNL     CL 2191   1.943   3.418   3.299  0.0024 -0.0544 -0.0917
  415UNL      C 2192   1.910   3.494   3.454 -0.8971 -0.3584  1.0609
  415UNL    CL1 2193   1.908   3.672   3.425  0.3828 -0.0133  0.2656
  415UNL    CL2 2194   1.765   3.436   3.531  0.1642  0.2800 -0.2935
  415UNL      H 2195   2.002   3.474   3.509 -0.3132  1.2149  0.7299
  416UNL     CL 2196   0.526   2.164   1.143  0.5215  0.1022  0.1737
  416UNL      C 2197   0.590   2.146   0.975 -0.5514 -0.2538  0.5254
  416UNL    CL1 2198   0.444   2.185   0.872  0.3781  0.6548  0.2692
  416UNL    CL2 2199   0.713   2.272   0.930  0.0848  0.1139 -0.1098
  416UNL      H 2200   0.627   2.044   0.959 -0.7622 -0.0857 -1.1690
   3.86437   3.86437   3.86437
