; nspe_7_1_GMX.top created by acpype (v: 2023.10.27) on Thu Mar 13 17:45:13 2025

;[ defaults ]
; nbfunc        comb-rule       gen-pairs       fudgeLJ fudgeQQ
;1               2               yes             0.5     0.8333333333

[ atomtypes ]
;name   bond_type     mass     charge   ptype   sigma         epsilon       Amb
 hn       hn          0.00000  0.00000   A     1.10650e-01   4.18400e-02 ; 0.62  0.0100
 n        n           0.00000  0.00000   A     3.18086e-01   6.84502e-01 ; 1.79  0.1636
 c3       c3          0.00000  0.00000   A     3.39771e-01   4.51035e-01 ; 1.91  0.1078
 h1       h1          0.00000  0.00000   A     2.42200e-01   8.70272e-02 ; 1.36  0.0208
 hc       hc          0.00000  0.00000   A     2.60018e-01   8.70272e-02 ; 1.46  0.0208
 ca       ca          0.00000  0.00000   A     3.31521e-01   4.13379e-01 ; 1.86  0.0988
 ha       ha          0.00000  0.00000   A     2.62548e-01   6.73624e-02 ; 1.47  0.0161
 c        c           0.00000  0.00000   A     3.31521e-01   4.13379e-01 ; 1.86  0.0988
 o        o           0.00000  0.00000   A     3.04812e-01   6.12119e-01 ; 1.71  0.1463
 cl       cl          0.00000  0.00000   A     3.46595e-01   1.10374e+00 ; ;1.95  0.2638
 c3       c3          0.00000  0.00000   A     3.39771e-01   4.51035e-01 ; ;1.91  0.1078
 h3       h3          0.00000  0.00000   A     2.06564e-01   8.70272e-02 ; ;1.16  0.0208

[ moleculetype ]
;name            nrexcl
 nspe_7_1         3

[ atoms ]
;   nr  type  resi  res  atom  cgnr     charge      mass       ; qtot   bond_type
     1   hn     1   HCP     H    1     0.122300      1.00800 ; qtot 0.122
     2    n     2   R02     N    2    -0.490100     14.01000 ; qtot -0.368
     3   c3     2   R02    C1    3     0.436900     12.01000 ; qtot 0.069
     4   h1     2   R02    H1    4    -0.054200      1.00800 ; qtot 0.015
     5   c3     2   R02    C2    5    -0.102500     12.01000 ; qtot -0.088
     6   hc     2   R02    H2    6     0.009300      1.00800 ; qtot -0.078
     7   hc     2   R02    H3    7     0.009300      1.00800 ; qtot -0.069
     8   hc     2   R02    H4    8     0.009300      1.00800 ; qtot -0.060
     9   ca     2   R02    C3    9     0.079300     12.01000 ; qtot 0.020
    10   ca     2   R02    C4   10    -0.221800     12.01000 ; qtot -0.202
    11   ha     2   R02    H5   11     0.103000      1.00800 ; qtot -0.099
    12   ca     2   R02    C5   12    -0.015200     12.01000 ; qtot -0.114
    13   ha     2   R02    H6   13     0.077700      1.00800 ; qtot -0.037
    14   ca     2   R02    C6   14    -0.172300     12.01000 ; qtot -0.209
    15   ha     2   R02    H7   15     0.106600      1.00800 ; qtot -0.102
    16   ca     2   R02    C7   16    -0.015200     12.01000 ; qtot -0.118
    17   ha     2   R02    H8   17     0.077700      1.00800 ; qtot -0.040
    18   ca     2   R02    C8   18    -0.221800     12.01000 ; qtot -0.262
    19   ha     2   R02    H9   19     0.103000      1.00800 ; qtot -0.159
    20   c3     2   R02    CA   20     0.078400     12.01000 ; qtot -0.080
    21   h1     2   R02   H10   21     0.022800      1.00800 ; qtot -0.057
    22   h1     2   R02   H11   22     0.022800      1.00800 ; qtot -0.035
    23    c     2   R02     C   23     0.578800     12.01000 ; qtot 0.544
    24    o     2   R02     O   24    -0.544100     16.00000 ; qtot -0.000
    25    n     3   R02     N   25    -0.367800     14.01000 ; qtot -0.368
    26   c3     3   R02    C1   26     0.436900     12.01000 ; qtot 0.069
    27   h1     3   R02    H1   27    -0.054200      1.00800 ; qtot 0.015
    28   c3     3   R02    C2   28    -0.102500     12.01000 ; qtot -0.088
    29   hc     3   R02    H2   29     0.009300      1.00800 ; qtot -0.078
    30   hc     3   R02    H3   30     0.009300      1.00800 ; qtot -0.069
    31   hc     3   R02    H4   31     0.009300      1.00800 ; qtot -0.060
    32   ca     3   R02    C3   32     0.079300     12.01000 ; qtot 0.020
    33   ca     3   R02    C4   33    -0.221800     12.01000 ; qtot -0.202
    34   ha     3   R02    H5   34     0.103000      1.00800 ; qtot -0.099
    35   ca     3   R02    C5   35    -0.015200     12.01000 ; qtot -0.114
    36   ha     3   R02    H6   36     0.077700      1.00800 ; qtot -0.037
    37   ca     3   R02    C6   37    -0.172300     12.01000 ; qtot -0.209
    38   ha     3   R02    H7   38     0.106600      1.00800 ; qtot -0.102
    39   ca     3   R02    C7   39    -0.015200     12.01000 ; qtot -0.118
    40   ha     3   R02    H8   40     0.077700      1.00800 ; qtot -0.040
    41   ca     3   R02    C8   41    -0.221800     12.01000 ; qtot -0.262
    42   ha     3   R02    H9   42     0.103000      1.00800 ; qtot -0.159
    43   c3     3   R02    CA   43     0.078400     12.01000 ; qtot -0.080
    44   h1     3   R02   H10   44     0.022800      1.00800 ; qtot -0.058
    45   h1     3   R02   H11   45     0.022800      1.00800 ; qtot -0.035
    46    c     3   R02     C   46     0.578800     12.01000 ; qtot 0.544
    47    o     3   R02     O   47    -0.544100     16.00000 ; qtot -0.000
    48    n     4   R02     N   48    -0.367800     14.01000 ; qtot -0.368
    49   c3     4   R02    C1   49     0.436900     12.01000 ; qtot 0.069
    50   h1     4   R02    H1   50    -0.054200      1.00800 ; qtot 0.015
    51   c3     4   R02    C2   51    -0.102500     12.01000 ; qtot -0.088
    52   hc     4   R02    H2   52     0.009300      1.00800 ; qtot -0.078
    53   hc     4   R02    H3   53     0.009300      1.00800 ; qtot -0.069
    54   hc     4   R02    H4   54     0.009300      1.00800 ; qtot -0.060
    55   ca     4   R02    C3   55     0.079300     12.01000 ; qtot 0.020
    56   ca     4   R02    C4   56    -0.221800     12.01000 ; qtot -0.202
    57   ha     4   R02    H5   57     0.103000      1.00800 ; qtot -0.099
    58   ca     4   R02    C5   58    -0.015200     12.01000 ; qtot -0.114
    59   ha     4   R02    H6   59     0.077700      1.00800 ; qtot -0.037
    60   ca     4   R02    C6   60    -0.172300     12.01000 ; qtot -0.209
    61   ha     4   R02    H7   61     0.106600      1.00800 ; qtot -0.102
    62   ca     4   R02    C7   62    -0.015200     12.01000 ; qtot -0.118
    63   ha     4   R02    H8   63     0.077700      1.00800 ; qtot -0.040
    64   ca     4   R02    C8   64    -0.221800     12.01000 ; qtot -0.262
    65   ha     4   R02    H9   65     0.103000      1.00800 ; qtot -0.159
    66   c3     4   R02    CA   66     0.078400     12.01000 ; qtot -0.080
    67   h1     4   R02   H10   67     0.022800      1.00800 ; qtot -0.058
    68   h1     4   R02   H11   68     0.022800      1.00800 ; qtot -0.035
    69    c     4   R02     C   69     0.578800     12.01000 ; qtot 0.544
    70    o     4   R02     O   70    -0.544100     16.00000 ; qtot -0.000
    71    n     5   R02     N   71    -0.367800     14.01000 ; qtot -0.368
    72   c3     5   R02    C1   72     0.436900     12.01000 ; qtot 0.069
    73   h1     5   R02    H1   73    -0.054200      1.00800 ; qtot 0.015
    74   c3     5   R02    C2   74    -0.102500     12.01000 ; qtot -0.088
    75   hc     5   R02    H2   75     0.009300      1.00800 ; qtot -0.078
    76   hc     5   R02    H3   76     0.009300      1.00800 ; qtot -0.069
    77   hc     5   R02    H4   77     0.009300      1.00800 ; qtot -0.060
    78   ca     5   R02    C3   78     0.079300     12.01000 ; qtot 0.020
    79   ca     5   R02    C4   79    -0.221800     12.01000 ; qtot -0.202
    80   ha     5   R02    H5   80     0.103000      1.00800 ; qtot -0.099
    81   ca     5   R02    C5   81    -0.015200     12.01000 ; qtot -0.114
    82   ha     5   R02    H6   82     0.077700      1.00800 ; qtot -0.037
    83   ca     5   R02    C6   83    -0.172300     12.01000 ; qtot -0.209
    84   ha     5   R02    H7   84     0.106600      1.00800 ; qtot -0.102
    85   ca     5   R02    C7   85    -0.015200     12.01000 ; qtot -0.118
    86   ha     5   R02    H8   86     0.077700      1.00800 ; qtot -0.040
    87   ca     5   R02    C8   87    -0.221800     12.01000 ; qtot -0.262
    88   ha     5   R02    H9   88     0.103000      1.00800 ; qtot -0.159
    89   c3     5   R02    CA   89     0.078400     12.01000 ; qtot -0.080
    90   h1     5   R02   H10   90     0.022800      1.00800 ; qtot -0.058
    91   h1     5   R02   H11   91     0.022800      1.00800 ; qtot -0.035
    92    c     5   R02     C   92     0.578800     12.01000 ; qtot 0.544
    93    o     5   R02     O   93    -0.544100     16.00000 ; qtot -0.000
    94    n     6   R02     N   94    -0.367800     14.01000 ; qtot -0.368
    95   c3     6   R02    C1   95     0.436900     12.01000 ; qtot 0.069
    96   h1     6   R02    H1   96    -0.054200      1.00800 ; qtot 0.015
    97   c3     6   R02    C2   97    -0.102500     12.01000 ; qtot -0.088
    98   hc     6   R02    H2   98     0.009300      1.00800 ; qtot -0.078
    99   hc     6   R02    H3   99     0.009300      1.00800 ; qtot -0.069
   100   hc     6   R02    H4  100     0.009300      1.00800 ; qtot -0.060
   101   ca     6   R02    C3  101     0.079300     12.01000 ; qtot 0.020
   102   ca     6   R02    C4  102    -0.221800     12.01000 ; qtot -0.202
   103   ha     6   R02    H5  103     0.103000      1.00800 ; qtot -0.099
   104   ca     6   R02    C5  104    -0.015200     12.01000 ; qtot -0.114
   105   ha     6   R02    H6  105     0.077700      1.00800 ; qtot -0.037
   106   ca     6   R02    C6  106    -0.172300     12.01000 ; qtot -0.209
   107   ha     6   R02    H7  107     0.106600      1.00800 ; qtot -0.102
   108   ca     6   R02    C7  108    -0.015200     12.01000 ; qtot -0.118
   109   ha     6   R02    H8  109     0.077700      1.00800 ; qtot -0.040
   110   ca     6   R02    C8  110    -0.221800     12.01000 ; qtot -0.262
   111   ha     6   R02    H9  111     0.103000      1.00800 ; qtot -0.159
   112   c3     6   R02    CA  112     0.078400     12.01000 ; qtot -0.080
   113   h1     6   R02   H10  113     0.022800      1.00800 ; qtot -0.058
   114   h1     6   R02   H11  114     0.022800      1.00800 ; qtot -0.035
   115    c     6   R02     C  115     0.578800     12.01000 ; qtot 0.544
   116    o     6   R02     O  116    -0.544100     16.00000 ; qtot -0.000
   117    n     7   R02     N  117    -0.367800     14.01000 ; qtot -0.368
   118   c3     7   R02    C1  118     0.436900     12.01000 ; qtot 0.069
   119   h1     7   R02    H1  119    -0.054200      1.00800 ; qtot 0.015
   120   c3     7   R02    C2  120    -0.102500     12.01000 ; qtot -0.088
   121   hc     7   R02    H2  121     0.009300      1.00800 ; qtot -0.078
   122   hc     7   R02    H3  122     0.009300      1.00800 ; qtot -0.069
   123   hc     7   R02    H4  123     0.009300      1.00800 ; qtot -0.060
   124   ca     7   R02    C3  124     0.079300     12.01000 ; qtot 0.020
   125   ca     7   R02    C4  125    -0.221800     12.01000 ; qtot -0.202
   126   ha     7   R02    H5  126     0.103000      1.00800 ; qtot -0.099
   127   ca     7   R02    C5  127    -0.015200     12.01000 ; qtot -0.114
   128   ha     7   R02    H6  128     0.077700      1.00800 ; qtot -0.037
   129   ca     7   R02    C6  129    -0.172300     12.01000 ; qtot -0.209
   130   ha     7   R02    H7  130     0.106600      1.00800 ; qtot -0.102
   131   ca     7   R02    C7  131    -0.015200     12.01000 ; qtot -0.118
   132   ha     7   R02    H8  132     0.077700      1.00800 ; qtot -0.040
   133   ca     7   R02    C8  133    -0.221800     12.01000 ; qtot -0.262
   134   ha     7   R02    H9  134     0.103000      1.00800 ; qtot -0.159
   135   c3     7   R02    CA  135     0.078400     12.01000 ; qtot -0.080
   136   h1     7   R02   H10  136     0.022800      1.00800 ; qtot -0.058
   137   h1     7   R02   H11  137     0.022800      1.00800 ; qtot -0.035
   138    c     7   R02     C  138     0.578800     12.01000 ; qtot 0.544
   139    o     7   R02     O  139    -0.544100     16.00000 ; qtot -0.000
   140    n     8   R02     N  140    -0.367800     14.01000 ; qtot -0.368
   141   c3     8   R02    C1  141     0.436900     12.01000 ; qtot 0.069
   142   h1     8   R02    H1  142    -0.054200      1.00800 ; qtot 0.015
   143   c3     8   R02    C2  143    -0.102500     12.01000 ; qtot -0.088
   144   hc     8   R02    H2  144     0.009300      1.00800 ; qtot -0.078
   145   hc     8   R02    H3  145     0.009300      1.00800 ; qtot -0.069
   146   hc     8   R02    H4  146     0.009300      1.00800 ; qtot -0.060
   147   ca     8   R02    C3  147     0.079300     12.01000 ; qtot 0.020
   148   ca     8   R02    C4  148    -0.221800     12.01000 ; qtot -0.202
   149   ha     8   R02    H5  149     0.103000      1.00800 ; qtot -0.099
   150   ca     8   R02    C5  150    -0.015200     12.01000 ; qtot -0.114
   151   ha     8   R02    H6  151     0.077700      1.00800 ; qtot -0.037
   152   ca     8   R02    C6  152    -0.172300     12.01000 ; qtot -0.209
   153   ha     8   R02    H7  153     0.106600      1.00800 ; qtot -0.102
   154   ca     8   R02    C7  154    -0.015200     12.01000 ; qtot -0.118
   155   ha     8   R02    H8  155     0.077700      1.00800 ; qtot -0.040
   156   ca     8   R02    C8  156    -0.221800     12.01000 ; qtot -0.262
   157   ha     8   R02    H9  157     0.103000      1.00800 ; qtot -0.159
   158   c3     8   R02    CA  158     0.078400     12.01000 ; qtot -0.080
   159   h1     8   R02   H10  159     0.022800      1.00800 ; qtot -0.058
   160   h1     8   R02   H11  160     0.022800      1.00800 ; qtot -0.035
   161    c     8   R02     C  161     0.578800     12.01000 ; qtot 0.544
   162    o     8   R02     O  162    -0.544100     16.00000 ; qtot -0.000
   163    n     9   NH2     N  163    -0.606400     14.01000 ; qtot -0.606
   164   hn     9   NH2    H1  164     0.303200      1.00800 ; qtot -0.303
   165   hn     9   NH2    H2  165     0.303200      1.00800 ; qtot -0.000

[ bonds ]
;   ai     aj funct   r             k
     1      2   1    1.0130e-01    4.4124e+05 ;      H - N     
     2      3   1    1.4620e-01    2.2075e+05 ;      N - C1    
     2     20   1    1.4620e-01    2.2075e+05 ;      N - CA    
     3      4   1    1.0970e-01    3.1455e+05 ;     C1 - H1    
     3      5   1    1.5380e-01    1.9456e+05 ;     C1 - C2    
     3      9   1    1.5160e-01    2.0945e+05 ;     C1 - C3    
     5      6   1    1.0970e-01    3.1455e+05 ;     C2 - H2    
     5      7   1    1.0970e-01    3.1455e+05 ;     C2 - H3    
     5      8   1    1.0970e-01    3.1455e+05 ;     C2 - H4    
     9     10   1    1.3980e-01    3.1681e+05 ;     C3 - C4    
     9     18   1    1.3980e-01    3.1681e+05 ;     C3 - C8    
    10     11   1    1.0860e-01    3.3112e+05 ;     C4 - H5    
    10     12   1    1.3980e-01    3.1681e+05 ;     C4 - C5    
    12     13   1    1.0860e-01    3.3112e+05 ;     C5 - H6    
    12     14   1    1.3980e-01    3.1681e+05 ;     C5 - C6    
    14     15   1    1.0860e-01    3.3112e+05 ;     C6 - H7    
    14     16   1    1.3980e-01    3.1681e+05 ;     C6 - C7    
    16     17   1    1.0860e-01    3.3112e+05 ;     C7 - H8    
    16     18   1    1.3980e-01    3.1681e+05 ;     C7 - C8    
    18     19   1    1.0860e-01    3.3112e+05 ;     C8 - H9    
    20     21   1    1.0970e-01    3.1455e+05 ;     CA - H10   
    20     22   1    1.0970e-01    3.1455e+05 ;     CA - H11   
    20     23   1    1.5240e-01    2.0351e+05 ;     CA - C     
    23     24   1    1.2180e-01    5.4610e+05 ;      C - O     
    23     25   1    1.3790e-01    2.9807e+05 ;      C - N     
    25     26   1    1.4620e-01    2.2075e+05 ;      N - C1    
    25     43   1    1.4620e-01    2.2075e+05 ;      N - CA    
    26     27   1    1.0970e-01    3.1455e+05 ;     C1 - H1    
    26     28   1    1.5380e-01    1.9456e+05 ;     C1 - C2    
    26     32   1    1.5160e-01    2.0945e+05 ;     C1 - C3    
    28     29   1    1.0970e-01    3.1455e+05 ;     C2 - H2    
    28     30   1    1.0970e-01    3.1455e+05 ;     C2 - H3    
    28     31   1    1.0970e-01    3.1455e+05 ;     C2 - H4    
    32     33   1    1.3980e-01    3.1681e+05 ;     C3 - C4    
    32     41   1    1.3980e-01    3.1681e+05 ;     C3 - C8    
    33     34   1    1.0860e-01    3.3112e+05 ;     C4 - H5    
    33     35   1    1.3980e-01    3.1681e+05 ;     C4 - C5    
    35     36   1    1.0860e-01    3.3112e+05 ;     C5 - H6    
    35     37   1    1.3980e-01    3.1681e+05 ;     C5 - C6    
    37     38   1    1.0860e-01    3.3112e+05 ;     C6 - H7    
    37     39   1    1.3980e-01    3.1681e+05 ;     C6 - C7    
    39     40   1    1.0860e-01    3.3112e+05 ;     C7 - H8    
    39     41   1    1.3980e-01    3.1681e+05 ;     C7 - C8    
    41     42   1    1.0860e-01    3.3112e+05 ;     C8 - H9    
    43     44   1    1.0970e-01    3.1455e+05 ;     CA - H10   
    43     45   1    1.0970e-01    3.1455e+05 ;     CA - H11   
    43     46   1    1.5240e-01    2.0351e+05 ;     CA - C     
    46     47   1    1.2180e-01    5.4610e+05 ;      C - O     
    46     48   1    1.3790e-01    2.9807e+05 ;      C - N     
    48     49   1    1.4620e-01    2.2075e+05 ;      N - C1    
    48     66   1    1.4620e-01    2.2075e+05 ;      N - CA    
    49     50   1    1.0970e-01    3.1455e+05 ;     C1 - H1    
    49     51   1    1.5380e-01    1.9456e+05 ;     C1 - C2    
    49     55   1    1.5160e-01    2.0945e+05 ;     C1 - C3    
    51     52   1    1.0970e-01    3.1455e+05 ;     C2 - H2    
    51     53   1    1.0970e-01    3.1455e+05 ;     C2 - H3    
    51     54   1    1.0970e-01    3.1455e+05 ;     C2 - H4    
    55     56   1    1.3980e-01    3.1681e+05 ;     C3 - C4    
    55     64   1    1.3980e-01    3.1681e+05 ;     C3 - C8    
    56     57   1    1.0860e-01    3.3112e+05 ;     C4 - H5    
    56     58   1    1.3980e-01    3.1681e+05 ;     C4 - C5    
    58     59   1    1.0860e-01    3.3112e+05 ;     C5 - H6    
    58     60   1    1.3980e-01    3.1681e+05 ;     C5 - C6    
    60     61   1    1.0860e-01    3.3112e+05 ;     C6 - H7    
    60     62   1    1.3980e-01    3.1681e+05 ;     C6 - C7    
    62     63   1    1.0860e-01    3.3112e+05 ;     C7 - H8    
    62     64   1    1.3980e-01    3.1681e+05 ;     C7 - C8    
    64     65   1    1.0860e-01    3.3112e+05 ;     C8 - H9    
    66     67   1    1.0970e-01    3.1455e+05 ;     CA - H10   
    66     68   1    1.0970e-01    3.1455e+05 ;     CA - H11   
    66     69   1    1.5240e-01    2.0351e+05 ;     CA - C     
    69     70   1    1.2180e-01    5.4610e+05 ;      C - O     
    69     71   1    1.3790e-01    2.9807e+05 ;      C - N     
    71     72   1    1.4620e-01    2.2075e+05 ;      N - C1    
    71     89   1    1.4620e-01    2.2075e+05 ;      N - CA    
    72     73   1    1.0970e-01    3.1455e+05 ;     C1 - H1    
    72     74   1    1.5380e-01    1.9456e+05 ;     C1 - C2    
    72     78   1    1.5160e-01    2.0945e+05 ;     C1 - C3    
    74     75   1    1.0970e-01    3.1455e+05 ;     C2 - H2    
    74     76   1    1.0970e-01    3.1455e+05 ;     C2 - H3    
    74     77   1    1.0970e-01    3.1455e+05 ;     C2 - H4    
    78     79   1    1.3980e-01    3.1681e+05 ;     C3 - C4    
    78     87   1    1.3980e-01    3.1681e+05 ;     C3 - C8    
    79     80   1    1.0860e-01    3.3112e+05 ;     C4 - H5    
    79     81   1    1.3980e-01    3.1681e+05 ;     C4 - C5    
    81     82   1    1.0860e-01    3.3112e+05 ;     C5 - H6    
    81     83   1    1.3980e-01    3.1681e+05 ;     C5 - C6    
    83     84   1    1.0860e-01    3.3112e+05 ;     C6 - H7    
    83     85   1    1.3980e-01    3.1681e+05 ;     C6 - C7    
    85     86   1    1.0860e-01    3.3112e+05 ;     C7 - H8    
    85     87   1    1.3980e-01    3.1681e+05 ;     C7 - C8    
    87     88   1    1.0860e-01    3.3112e+05 ;     C8 - H9    
    89     90   1    1.0970e-01    3.1455e+05 ;     CA - H10   
    89     91   1    1.0970e-01    3.1455e+05 ;     CA - H11   
    89     92   1    1.5240e-01    2.0351e+05 ;     CA - C     
    92     93   1    1.2180e-01    5.4610e+05 ;      C - O     
    92     94   1    1.3790e-01    2.9807e+05 ;      C - N     
    94     95   1    1.4620e-01    2.2075e+05 ;      N - C1    
    94    112   1    1.4620e-01    2.2075e+05 ;      N - CA    
    95     96   1    1.0970e-01    3.1455e+05 ;     C1 - H1    
    95     97   1    1.5380e-01    1.9456e+05 ;     C1 - C2    
    95    101   1    1.5160e-01    2.0945e+05 ;     C1 - C3    
    97     98   1    1.0970e-01    3.1455e+05 ;     C2 - H2    
    97     99   1    1.0970e-01    3.1455e+05 ;     C2 - H3    
    97    100   1    1.0970e-01    3.1455e+05 ;     C2 - H4    
   101    102   1    1.3980e-01    3.1681e+05 ;     C3 - C4    
   101    110   1    1.3980e-01    3.1681e+05 ;     C3 - C8    
   102    103   1    1.0860e-01    3.3112e+05 ;     C4 - H5    
   102    104   1    1.3980e-01    3.1681e+05 ;     C4 - C5    
   104    105   1    1.0860e-01    3.3112e+05 ;     C5 - H6    
   104    106   1    1.3980e-01    3.1681e+05 ;     C5 - C6    
   106    107   1    1.0860e-01    3.3112e+05 ;     C6 - H7    
   106    108   1    1.3980e-01    3.1681e+05 ;     C6 - C7    
   108    109   1    1.0860e-01    3.3112e+05 ;     C7 - H8    
   108    110   1    1.3980e-01    3.1681e+05 ;     C7 - C8    
   110    111   1    1.0860e-01    3.3112e+05 ;     C8 - H9    
   112    113   1    1.0970e-01    3.1455e+05 ;     CA - H10   
   112    114   1    1.0970e-01    3.1455e+05 ;     CA - H11   
   112    115   1    1.5240e-01    2.0351e+05 ;     CA - C     
   115    116   1    1.2180e-01    5.4610e+05 ;      C - O     
   115    117   1    1.3790e-01    2.9807e+05 ;      C - N     
   117    118   1    1.4620e-01    2.2075e+05 ;      N - C1    
   117    135   1    1.4620e-01    2.2075e+05 ;      N - CA    
   118    119   1    1.0970e-01    3.1455e+05 ;     C1 - H1    
   118    120   1    1.5380e-01    1.9456e+05 ;     C1 - C2    
   118    124   1    1.5160e-01    2.0945e+05 ;     C1 - C3    
   120    121   1    1.0970e-01    3.1455e+05 ;     C2 - H2    
   120    122   1    1.0970e-01    3.1455e+05 ;     C2 - H3    
   120    123   1    1.0970e-01    3.1455e+05 ;     C2 - H4    
   124    125   1    1.3980e-01    3.1681e+05 ;     C3 - C4    
   124    133   1    1.3980e-01    3.1681e+05 ;     C3 - C8    
   125    126   1    1.0860e-01    3.3112e+05 ;     C4 - H5    
   125    127   1    1.3980e-01    3.1681e+05 ;     C4 - C5    
   127    128   1    1.0860e-01    3.3112e+05 ;     C5 - H6    
   127    129   1    1.3980e-01    3.1681e+05 ;     C5 - C6    
   129    130   1    1.0860e-01    3.3112e+05 ;     C6 - H7    
   129    131   1    1.3980e-01    3.1681e+05 ;     C6 - C7    
   131    132   1    1.0860e-01    3.3112e+05 ;     C7 - H8    
   131    133   1    1.3980e-01    3.1681e+05 ;     C7 - C8    
   133    134   1    1.0860e-01    3.3112e+05 ;     C8 - H9    
   135    136   1    1.0970e-01    3.1455e+05 ;     CA - H10   
   135    137   1    1.0970e-01    3.1455e+05 ;     CA - H11   
   135    138   1    1.5240e-01    2.0351e+05 ;     CA - C     
   138    139   1    1.2180e-01    5.4610e+05 ;      C - O     
   138    140   1    1.3790e-01    2.9807e+05 ;      C - N     
   140    141   1    1.4620e-01    2.2075e+05 ;      N - C1    
   140    158   1    1.4620e-01    2.2075e+05 ;      N - CA    
   141    142   1    1.0970e-01    3.1455e+05 ;     C1 - H1    
   141    143   1    1.5380e-01    1.9456e+05 ;     C1 - C2    
   141    147   1    1.5160e-01    2.0945e+05 ;     C1 - C3    
   143    144   1    1.0970e-01    3.1455e+05 ;     C2 - H2    
   143    145   1    1.0970e-01    3.1455e+05 ;     C2 - H3    
   143    146   1    1.0970e-01    3.1455e+05 ;     C2 - H4    
   147    148   1    1.3980e-01    3.1681e+05 ;     C3 - C4    
   147    156   1    1.3980e-01    3.1681e+05 ;     C3 - C8    
   148    149   1    1.0860e-01    3.3112e+05 ;     C4 - H5    
   148    150   1    1.3980e-01    3.1681e+05 ;     C4 - C5    
   150    151   1    1.0860e-01    3.3112e+05 ;     C5 - H6    
   150    152   1    1.3980e-01    3.1681e+05 ;     C5 - C6    
   152    153   1    1.0860e-01    3.3112e+05 ;     C6 - H7    
   152    154   1    1.3980e-01    3.1681e+05 ;     C6 - C7    
   154    155   1    1.0860e-01    3.3112e+05 ;     C7 - H8    
   154    156   1    1.3980e-01    3.1681e+05 ;     C7 - C8    
   156    157   1    1.0860e-01    3.3112e+05 ;     C8 - H9    
   158    159   1    1.0970e-01    3.1455e+05 ;     CA - H10   
   158    160   1    1.0970e-01    3.1455e+05 ;     CA - H11   
   158    161   1    1.5240e-01    2.0351e+05 ;     CA - C     
   161    162   1    1.2180e-01    5.4610e+05 ;      C - O     
   161    163   1    1.3790e-01    2.9807e+05 ;      C - N     
   163    164   1    1.0130e-01    4.4124e+05 ;      N - H1    
   163    165   1    1.0130e-01    4.4124e+05 ;      N - H2    

[ pairs ]
;   ai     aj    funct
     1      4      1 ;      H - H1    
     1      5      1 ;      H - C2    
     1      9      1 ;      H - C3    
     1     21      1 ;      H - H10   
     1     22      1 ;      H - H11   
     1     23      1 ;      H - C     
     2      6      1 ;      N - H2    
     2      7      1 ;      N - H3    
     2      8      1 ;      N - H4    
     2     10      1 ;      N - C4    
     2     18      1 ;      N - C8    
     2     24      1 ;      N - O     
     2     25      1 ;      N - N     
     3     11      1 ;     C1 - H5    
     3     12      1 ;     C1 - C5    
     3     16      1 ;     C1 - C7    
     3     19      1 ;     C1 - H9    
     3     21      1 ;     C1 - H10   
     3     22      1 ;     C1 - H11   
     3     23      1 ;     C1 - C     
     4      6      1 ;     H1 - H2    
     4      7      1 ;     H1 - H3    
     4      8      1 ;     H1 - H4    
     4     10      1 ;     H1 - C4    
     4     18      1 ;     H1 - C8    
     4     20      1 ;     H1 - CA    
     5     10      1 ;     C2 - C4    
     5     18      1 ;     C2 - C8    
     5     20      1 ;     C2 - CA    
     6      9      1 ;     H2 - C3    
     7      9      1 ;     H3 - C3    
     8      9      1 ;     H4 - C3    
     9     13      1 ;     C3 - H6    
     9     14      1 ;     C3 - C6    
     9     17      1 ;     C3 - H8    
     9     20      1 ;     C3 - CA    
    10     15      1 ;     C4 - H7    
    10     16      1 ;     C4 - C7    
    10     19      1 ;     C4 - H9    
    11     13      1 ;     H5 - H6    
    11     14      1 ;     H5 - C6    
    11     18      1 ;     H5 - C8    
    12     17      1 ;     C5 - H8    
    12     18      1 ;     C5 - C8    
    13     15      1 ;     H6 - H7    
    13     16      1 ;     H6 - C7    
    14     19      1 ;     C6 - H9    
    15     17      1 ;     H7 - H8    
    15     18      1 ;     H7 - C8    
    17     19      1 ;     H8 - H9    
    20     26      1 ;     CA - C1    
    20     43      1 ;     CA - CA    
    21     24      1 ;    H10 - O     
    21     25      1 ;    H10 - N     
    22     24      1 ;    H11 - O     
    22     25      1 ;    H11 - N     
    23     27      1 ;      C - H1    
    23     28      1 ;      C - C2    
    23     32      1 ;      C - C3    
    23     44      1 ;      C - H10   
    23     45      1 ;      C - H11   
    23     46      1 ;      C - C     
    24     26      1 ;      O - C1    
    24     43      1 ;      O - CA    
    25     29      1 ;      N - H2    
    25     30      1 ;      N - H3    
    25     31      1 ;      N - H4    
    25     33      1 ;      N - C4    
    25     41      1 ;      N - C8    
    25     47      1 ;      N - O     
    25     48      1 ;      N - N     
    26     34      1 ;     C1 - H5    
    26     35      1 ;     C1 - C5    
    26     39      1 ;     C1 - C7    
    26     42      1 ;     C1 - H9    
    26     44      1 ;     C1 - H10   
    26     45      1 ;     C1 - H11   
    26     46      1 ;     C1 - C     
    27     29      1 ;     H1 - H2    
    27     30      1 ;     H1 - H3    
    27     31      1 ;     H1 - H4    
    27     33      1 ;     H1 - C4    
    27     41      1 ;     H1 - C8    
    27     43      1 ;     H1 - CA    
    28     33      1 ;     C2 - C4    
    28     41      1 ;     C2 - C8    
    28     43      1 ;     C2 - CA    
    29     32      1 ;     H2 - C3    
    30     32      1 ;     H3 - C3    
    31     32      1 ;     H4 - C3    
    32     36      1 ;     C3 - H6    
    32     37      1 ;     C3 - C6    
    32     40      1 ;     C3 - H8    
    32     43      1 ;     C3 - CA    
    33     38      1 ;     C4 - H7    
    33     39      1 ;     C4 - C7    
    33     42      1 ;     C4 - H9    
    34     36      1 ;     H5 - H6    
    34     37      1 ;     H5 - C6    
    34     41      1 ;     H5 - C8    
    35     40      1 ;     C5 - H8    
    35     41      1 ;     C5 - C8    
    36     38      1 ;     H6 - H7    
    36     39      1 ;     H6 - C7    
    37     42      1 ;     C6 - H9    
    38     40      1 ;     H7 - H8    
    38     41      1 ;     H7 - C8    
    40     42      1 ;     H8 - H9    
    43     49      1 ;     CA - C1    
    43     66      1 ;     CA - CA    
    44     47      1 ;    H10 - O     
    44     48      1 ;    H10 - N     
    45     47      1 ;    H11 - O     
    45     48      1 ;    H11 - N     
    46     50      1 ;      C - H1    
    46     51      1 ;      C - C2    
    46     55      1 ;      C - C3    
    46     67      1 ;      C - H10   
    46     68      1 ;      C - H11   
    46     69      1 ;      C - C     
    47     49      1 ;      O - C1    
    47     66      1 ;      O - CA    
    48     52      1 ;      N - H2    
    48     53      1 ;      N - H3    
    48     54      1 ;      N - H4    
    48     56      1 ;      N - C4    
    48     64      1 ;      N - C8    
    48     70      1 ;      N - O     
    48     71      1 ;      N - N     
    49     57      1 ;     C1 - H5    
    49     58      1 ;     C1 - C5    
    49     62      1 ;     C1 - C7    
    49     65      1 ;     C1 - H9    
    49     67      1 ;     C1 - H10   
    49     68      1 ;     C1 - H11   
    49     69      1 ;     C1 - C     
    50     52      1 ;     H1 - H2    
    50     53      1 ;     H1 - H3    
    50     54      1 ;     H1 - H4    
    50     56      1 ;     H1 - C4    
    50     64      1 ;     H1 - C8    
    50     66      1 ;     H1 - CA    
    51     56      1 ;     C2 - C4    
    51     64      1 ;     C2 - C8    
    51     66      1 ;     C2 - CA    
    52     55      1 ;     H2 - C3    
    53     55      1 ;     H3 - C3    
    54     55      1 ;     H4 - C3    
    55     59      1 ;     C3 - H6    
    55     60      1 ;     C3 - C6    
    55     63      1 ;     C3 - H8    
    55     66      1 ;     C3 - CA    
    56     61      1 ;     C4 - H7    
    56     62      1 ;     C4 - C7    
    56     65      1 ;     C4 - H9    
    57     59      1 ;     H5 - H6    
    57     60      1 ;     H5 - C6    
    57     64      1 ;     H5 - C8    
    58     63      1 ;     C5 - H8    
    58     64      1 ;     C5 - C8    
    59     61      1 ;     H6 - H7    
    59     62      1 ;     H6 - C7    
    60     65      1 ;     C6 - H9    
    61     63      1 ;     H7 - H8    
    61     64      1 ;     H7 - C8    
    63     65      1 ;     H8 - H9    
    66     72      1 ;     CA - C1    
    66     89      1 ;     CA - CA    
    67     70      1 ;    H10 - O     
    67     71      1 ;    H10 - N     
    68     70      1 ;    H11 - O     
    68     71      1 ;    H11 - N     
    69     73      1 ;      C - H1    
    69     74      1 ;      C - C2    
    69     78      1 ;      C - C3    
    69     90      1 ;      C - H10   
    69     91      1 ;      C - H11   
    69     92      1 ;      C - C     
    70     72      1 ;      O - C1    
    70     89      1 ;      O - CA    
    71     75      1 ;      N - H2    
    71     76      1 ;      N - H3    
    71     77      1 ;      N - H4    
    71     79      1 ;      N - C4    
    71     87      1 ;      N - C8    
    71     93      1 ;      N - O     
    71     94      1 ;      N - N     
    72     80      1 ;     C1 - H5    
    72     81      1 ;     C1 - C5    
    72     85      1 ;     C1 - C7    
    72     88      1 ;     C1 - H9    
    72     90      1 ;     C1 - H10   
    72     91      1 ;     C1 - H11   
    72     92      1 ;     C1 - C     
    73     75      1 ;     H1 - H2    
    73     76      1 ;     H1 - H3    
    73     77      1 ;     H1 - H4    
    73     79      1 ;     H1 - C4    
    73     87      1 ;     H1 - C8    
    73     89      1 ;     H1 - CA    
    74     79      1 ;     C2 - C4    
    74     87      1 ;     C2 - C8    
    74     89      1 ;     C2 - CA    
    75     78      1 ;     H2 - C3    
    76     78      1 ;     H3 - C3    
    77     78      1 ;     H4 - C3    
    78     82      1 ;     C3 - H6    
    78     83      1 ;     C3 - C6    
    78     86      1 ;     C3 - H8    
    78     89      1 ;     C3 - CA    
    79     84      1 ;     C4 - H7    
    79     85      1 ;     C4 - C7    
    79     88      1 ;     C4 - H9    
    80     82      1 ;     H5 - H6    
    80     83      1 ;     H5 - C6    
    80     87      1 ;     H5 - C8    
    81     86      1 ;     C5 - H8    
    81     87      1 ;     C5 - C8    
    82     84      1 ;     H6 - H7    
    82     85      1 ;     H6 - C7    
    83     88      1 ;     C6 - H9    
    84     86      1 ;     H7 - H8    
    84     87      1 ;     H7 - C8    
    86     88      1 ;     H8 - H9    
    89     95      1 ;     CA - C1    
    89    112      1 ;     CA - CA    
    90     93      1 ;    H10 - O     
    90     94      1 ;    H10 - N     
    91     93      1 ;    H11 - O     
    91     94      1 ;    H11 - N     
    92     96      1 ;      C - H1    
    92     97      1 ;      C - C2    
    92    101      1 ;      C - C3    
    92    113      1 ;      C - H10   
    92    114      1 ;      C - H11   
    92    115      1 ;      C - C     
    93     95      1 ;      O - C1    
    93    112      1 ;      O - CA    
    94     98      1 ;      N - H2    
    94     99      1 ;      N - H3    
    94    100      1 ;      N - H4    
    94    102      1 ;      N - C4    
    94    110      1 ;      N - C8    
    94    116      1 ;      N - O     
    94    117      1 ;      N - N     
    95    103      1 ;     C1 - H5    
    95    104      1 ;     C1 - C5    
    95    108      1 ;     C1 - C7    
    95    111      1 ;     C1 - H9    
    95    113      1 ;     C1 - H10   
    95    114      1 ;     C1 - H11   
    95    115      1 ;     C1 - C     
    96     98      1 ;     H1 - H2    
    96     99      1 ;     H1 - H3    
    96    100      1 ;     H1 - H4    
    96    102      1 ;     H1 - C4    
    96    110      1 ;     H1 - C8    
    96    112      1 ;     H1 - CA    
    97    102      1 ;     C2 - C4    
    97    110      1 ;     C2 - C8    
    97    112      1 ;     C2 - CA    
    98    101      1 ;     H2 - C3    
    99    101      1 ;     H3 - C3    
   100    101      1 ;     H4 - C3    
   101    105      1 ;     C3 - H6    
   101    106      1 ;     C3 - C6    
   101    109      1 ;     C3 - H8    
   101    112      1 ;     C3 - CA    
   102    107      1 ;     C4 - H7    
   102    108      1 ;     C4 - C7    
   102    111      1 ;     C4 - H9    
   103    105      1 ;     H5 - H6    
   103    106      1 ;     H5 - C6    
   103    110      1 ;     H5 - C8    
   104    109      1 ;     C5 - H8    
   104    110      1 ;     C5 - C8    
   105    107      1 ;     H6 - H7    
   105    108      1 ;     H6 - C7    
   106    111      1 ;     C6 - H9    
   107    109      1 ;     H7 - H8    
   107    110      1 ;     H7 - C8    
   109    111      1 ;     H8 - H9    
   112    118      1 ;     CA - C1    
   112    135      1 ;     CA - CA    
   113    116      1 ;    H10 - O     
   113    117      1 ;    H10 - N     
   114    116      1 ;    H11 - O     
   114    117      1 ;    H11 - N     
   115    119      1 ;      C - H1    
   115    120      1 ;      C - C2    
   115    124      1 ;      C - C3    
   115    136      1 ;      C - H10   
   115    137      1 ;      C - H11   
   115    138      1 ;      C - C     
   116    118      1 ;      O - C1    
   116    135      1 ;      O - CA    
   117    121      1 ;      N - H2    
   117    122      1 ;      N - H3    
   117    123      1 ;      N - H4    
   117    125      1 ;      N - C4    
   117    133      1 ;      N - C8    
   117    139      1 ;      N - O     
   117    140      1 ;      N - N     
   118    126      1 ;     C1 - H5    
   118    127      1 ;     C1 - C5    
   118    131      1 ;     C1 - C7    
   118    134      1 ;     C1 - H9    
   118    136      1 ;     C1 - H10   
   118    137      1 ;     C1 - H11   
   118    138      1 ;     C1 - C     
   119    121      1 ;     H1 - H2    
   119    122      1 ;     H1 - H3    
   119    123      1 ;     H1 - H4    
   119    125      1 ;     H1 - C4    
   119    133      1 ;     H1 - C8    
   119    135      1 ;     H1 - CA    
   120    125      1 ;     C2 - C4    
   120    133      1 ;     C2 - C8    
   120    135      1 ;     C2 - CA    
   121    124      1 ;     H2 - C3    
   122    124      1 ;     H3 - C3    
   123    124      1 ;     H4 - C3    
   124    128      1 ;     C3 - H6    
   124    129      1 ;     C3 - C6    
   124    132      1 ;     C3 - H8    
   124    135      1 ;     C3 - CA    
   125    130      1 ;     C4 - H7    
   125    131      1 ;     C4 - C7    
   125    134      1 ;     C4 - H9    
   126    128      1 ;     H5 - H6    
   126    129      1 ;     H5 - C6    
   126    133      1 ;     H5 - C8    
   127    132      1 ;     C5 - H8    
   127    133      1 ;     C5 - C8    
   128    130      1 ;     H6 - H7    
   128    131      1 ;     H6 - C7    
   129    134      1 ;     C6 - H9    
   130    132      1 ;     H7 - H8    
   130    133      1 ;     H7 - C8    
   132    134      1 ;     H8 - H9    
   135    141      1 ;     CA - C1    
   135    158      1 ;     CA - CA    
   136    139      1 ;    H10 - O     
   136    140      1 ;    H10 - N     
   137    139      1 ;    H11 - O     
   137    140      1 ;    H11 - N     
   138    142      1 ;      C - H1    
   138    143      1 ;      C - C2    
   138    147      1 ;      C - C3    
   138    159      1 ;      C - H10   
   138    160      1 ;      C - H11   
   138    161      1 ;      C - C     
   139    141      1 ;      O - C1    
   139    158      1 ;      O - CA    
   140    144      1 ;      N - H2    
   140    145      1 ;      N - H3    
   140    146      1 ;      N - H4    
   140    148      1 ;      N - C4    
   140    156      1 ;      N - C8    
   140    162      1 ;      N - O     
   140    163      1 ;      N - N     
   141    149      1 ;     C1 - H5    
   141    150      1 ;     C1 - C5    
   141    154      1 ;     C1 - C7    
   141    157      1 ;     C1 - H9    
   141    159      1 ;     C1 - H10   
   141    160      1 ;     C1 - H11   
   141    161      1 ;     C1 - C     
   142    144      1 ;     H1 - H2    
   142    145      1 ;     H1 - H3    
   142    146      1 ;     H1 - H4    
   142    148      1 ;     H1 - C4    
   142    156      1 ;     H1 - C8    
   142    158      1 ;     H1 - CA    
   143    148      1 ;     C2 - C4    
   143    156      1 ;     C2 - C8    
   143    158      1 ;     C2 - CA    
   144    147      1 ;     H2 - C3    
   145    147      1 ;     H3 - C3    
   146    147      1 ;     H4 - C3    
   147    151      1 ;     C3 - H6    
   147    152      1 ;     C3 - C6    
   147    155      1 ;     C3 - H8    
   147    158      1 ;     C3 - CA    
   148    153      1 ;     C4 - H7    
   148    154      1 ;     C4 - C7    
   148    157      1 ;     C4 - H9    
   149    151      1 ;     H5 - H6    
   149    152      1 ;     H5 - C6    
   149    156      1 ;     H5 - C8    
   150    155      1 ;     C5 - H8    
   150    156      1 ;     C5 - C8    
   151    153      1 ;     H6 - H7    
   151    154      1 ;     H6 - C7    
   152    157      1 ;     C6 - H9    
   153    155      1 ;     H7 - H8    
   153    156      1 ;     H7 - C8    
   155    157      1 ;     H8 - H9    
   158    164      1 ;     CA - H1    
   158    165      1 ;     CA - H2    
   159    162      1 ;    H10 - O     
   159    163      1 ;    H10 - N     
   160    162      1 ;    H11 - O     
   160    163      1 ;    H11 - N     
   162    164      1 ;      O - H1    
   162    165      1 ;      O - H2    

[ angles ]
;   ai     aj     ak    funct   theta         cth
     1      2      3      1    1.1768e+02    3.8576e+02 ;      H - N      - C1    
     1      2     20      1    1.1768e+02    3.8576e+02 ;      H - N      - CA    
     2      3      4      1    1.0888e+02    5.1463e+02 ;      N - C1     - H1    
     2      3      5      1    1.1161e+02    6.9622e+02 ;      N - C1     - C2    
     2      3      9      1    1.1238e+02    6.9873e+02 ;      N - C1     - C3    
     2     20     21      1    1.0888e+02    5.1463e+02 ;      N - CA     - H10   
     2     20     22      1    1.0888e+02    5.1463e+02 ;      N - CA     - H11   
     2     20     23      1    1.0906e+02    7.0710e+02 ;      N - CA     - C     
     3      2     20      1    1.1564e+02    5.4308e+02 ;     C1 - N      - CA    
     3      5      6      1    1.0980e+02    3.9162e+02 ;     C1 - C2     - H2    
     3      5      7      1    1.0980e+02    3.9162e+02 ;     C1 - C2     - H3    
     3      5      8      1    1.0980e+02    3.9162e+02 ;     C1 - C2     - H4    
     3      9     10      1    1.2077e+02    5.4894e+02 ;     C1 - C3     - C4    
     3      9     18      1    1.2077e+02    5.4894e+02 ;     C1 - C3     - C8    
     4      3      5      1    1.0956e+02    3.9246e+02 ;     H1 - C1     - C2    
     4      3      9      1    1.0956e+02    3.9748e+02 ;     H1 - C1     - C3    
     5      3      9      1    1.1207e+02    5.4559e+02 ;     C2 - C1     - C3    
     6      5      7      1    1.0758e+02    3.2635e+02 ;     H2 - C2     - H3    
     6      5      8      1    1.0758e+02    3.2635e+02 ;     H2 - C2     - H4    
     7      5      8      1    1.0758e+02    3.2635e+02 ;     H3 - C2     - H4    
     9     10     11      1    1.1988e+02    4.0752e+02 ;     C3 - C4     - H5    
     9     10     12      1    1.2002e+02    5.7572e+02 ;     C3 - C4     - C5    
     9     18     16      1    1.2002e+02    5.7572e+02 ;     C3 - C8     - C7    
     9     18     19      1    1.1988e+02    4.0752e+02 ;     C3 - C8     - H9    
    10      9     18      1    1.2002e+02    5.7572e+02 ;     C4 - C3     - C8    
    10     12     13      1    1.1988e+02    4.0752e+02 ;     C4 - C5     - H6    
    10     12     14      1    1.2002e+02    5.7572e+02 ;     C4 - C5     - C6    
    11     10     12      1    1.1988e+02    4.0752e+02 ;     H5 - C4     - C5    
    12     14     15      1    1.1988e+02    4.0752e+02 ;     C5 - C6     - H7    
    12     14     16      1    1.2002e+02    5.7572e+02 ;     C5 - C6     - C7    
    13     12     14      1    1.1988e+02    4.0752e+02 ;     H6 - C5     - C6    
    14     16     17      1    1.1988e+02    4.0752e+02 ;     C6 - C7     - H8    
    14     16     18      1    1.2002e+02    5.7572e+02 ;     C6 - C7     - C8    
    15     14     16      1    1.1988e+02    4.0752e+02 ;     H7 - C6     - C7    
    16     18     19      1    1.1988e+02    4.0752e+02 ;     C7 - C8     - H9    
    17     16     18      1    1.1988e+02    4.0752e+02 ;     H8 - C7     - C8    
    20     23     24      1    1.2320e+02    7.0793e+02 ;     CA - C      - O     
    20     23     25      1    1.1518e+02    7.0542e+02 ;     CA - C      - N     
    21     20     22      1    1.0846e+02    3.2468e+02 ;    H10 - CA     - H11   
    21     20     23      1    1.0822e+02    3.9748e+02 ;    H10 - CA     - C     
    22     20     23      1    1.0822e+02    3.9748e+02 ;    H11 - CA     - C     
    23     25     26      1    1.2069e+02    5.4643e+02 ;      C - N      - C1    
    23     25     43      1    1.2069e+02    5.4643e+02 ;      C - N      - CA    
    24     23     25      1    1.2305e+02    9.5228e+02 ;      O - C      - N     
    25     26     27      1    1.0888e+02    5.1463e+02 ;      N - C1     - H1    
    25     26     28      1    1.1161e+02    6.9622e+02 ;      N - C1     - C2    
    25     26     32      1    1.1238e+02    6.9873e+02 ;      N - C1     - C3    
    25     43     44      1    1.0888e+02    5.1463e+02 ;      N - CA     - H10   
    25     43     45      1    1.0888e+02    5.1463e+02 ;      N - CA     - H11   
    25     43     46      1    1.0906e+02    7.0710e+02 ;      N - CA     - C     
    26     25     43      1    1.1564e+02    5.4308e+02 ;     C1 - N      - CA    
    26     28     29      1    1.0980e+02    3.9162e+02 ;     C1 - C2     - H2    
    26     28     30      1    1.0980e+02    3.9162e+02 ;     C1 - C2     - H3    
    26     28     31      1    1.0980e+02    3.9162e+02 ;     C1 - C2     - H4    
    26     32     33      1    1.2077e+02    5.4894e+02 ;     C1 - C3     - C4    
    26     32     41      1    1.2077e+02    5.4894e+02 ;     C1 - C3     - C8    
    27     26     28      1    1.0956e+02    3.9246e+02 ;     H1 - C1     - C2    
    27     26     32      1    1.0956e+02    3.9748e+02 ;     H1 - C1     - C3    
    28     26     32      1    1.1207e+02    5.4559e+02 ;     C2 - C1     - C3    
    29     28     30      1    1.0758e+02    3.2635e+02 ;     H2 - C2     - H3    
    29     28     31      1    1.0758e+02    3.2635e+02 ;     H2 - C2     - H4    
    30     28     31      1    1.0758e+02    3.2635e+02 ;     H3 - C2     - H4    
    32     33     34      1    1.1988e+02    4.0752e+02 ;     C3 - C4     - H5    
    32     33     35      1    1.2002e+02    5.7572e+02 ;     C3 - C4     - C5    
    32     41     39      1    1.2002e+02    5.7572e+02 ;     C3 - C8     - C7    
    32     41     42      1    1.1988e+02    4.0752e+02 ;     C3 - C8     - H9    
    33     32     41      1    1.2002e+02    5.7572e+02 ;     C4 - C3     - C8    
    33     35     36      1    1.1988e+02    4.0752e+02 ;     C4 - C5     - H6    
    33     35     37      1    1.2002e+02    5.7572e+02 ;     C4 - C5     - C6    
    34     33     35      1    1.1988e+02    4.0752e+02 ;     H5 - C4     - C5    
    35     37     38      1    1.1988e+02    4.0752e+02 ;     C5 - C6     - H7    
    35     37     39      1    1.2002e+02    5.7572e+02 ;     C5 - C6     - C7    
    36     35     37      1    1.1988e+02    4.0752e+02 ;     H6 - C5     - C6    
    37     39     40      1    1.1988e+02    4.0752e+02 ;     C6 - C7     - H8    
    37     39     41      1    1.2002e+02    5.7572e+02 ;     C6 - C7     - C8    
    38     37     39      1    1.1988e+02    4.0752e+02 ;     H7 - C6     - C7    
    39     41     42      1    1.1988e+02    4.0752e+02 ;     C7 - C8     - H9    
    40     39     41      1    1.1988e+02    4.0752e+02 ;     H8 - C7     - C8    
    43     46     47      1    1.2320e+02    7.0793e+02 ;     CA - C      - O     
    43     46     48      1    1.1518e+02    7.0542e+02 ;     CA - C      - N     
    44     43     45      1    1.0846e+02    3.2468e+02 ;    H10 - CA     - H11   
    44     43     46      1    1.0822e+02    3.9748e+02 ;    H10 - CA     - C     
    45     43     46      1    1.0822e+02    3.9748e+02 ;    H11 - CA     - C     
    46     48     49      1    1.2069e+02    5.4643e+02 ;      C - N      - C1    
    46     48     66      1    1.2069e+02    5.4643e+02 ;      C - N      - CA    
    47     46     48      1    1.2305e+02    9.5228e+02 ;      O - C      - N     
    48     49     50      1    1.0888e+02    5.1463e+02 ;      N - C1     - H1    
    48     49     51      1    1.1161e+02    6.9622e+02 ;      N - C1     - C2    
    48     49     55      1    1.1238e+02    6.9873e+02 ;      N - C1     - C3    
    48     66     67      1    1.0888e+02    5.1463e+02 ;      N - CA     - H10   
    48     66     68      1    1.0888e+02    5.1463e+02 ;      N - CA     - H11   
    48     66     69      1    1.0906e+02    7.0710e+02 ;      N - CA     - C     
    49     48     66      1    1.1564e+02    5.4308e+02 ;     C1 - N      - CA    
    49     51     52      1    1.0980e+02    3.9162e+02 ;     C1 - C2     - H2    
    49     51     53      1    1.0980e+02    3.9162e+02 ;     C1 - C2     - H3    
    49     51     54      1    1.0980e+02    3.9162e+02 ;     C1 - C2     - H4    
    49     55     56      1    1.2077e+02    5.4894e+02 ;     C1 - C3     - C4    
    49     55     64      1    1.2077e+02    5.4894e+02 ;     C1 - C3     - C8    
    50     49     51      1    1.0956e+02    3.9246e+02 ;     H1 - C1     - C2    
    50     49     55      1    1.0956e+02    3.9748e+02 ;     H1 - C1     - C3    
    51     49     55      1    1.1207e+02    5.4559e+02 ;     C2 - C1     - C3    
    52     51     53      1    1.0758e+02    3.2635e+02 ;     H2 - C2     - H3    
    52     51     54      1    1.0758e+02    3.2635e+02 ;     H2 - C2     - H4    
    53     51     54      1    1.0758e+02    3.2635e+02 ;     H3 - C2     - H4    
    55     56     57      1    1.1988e+02    4.0752e+02 ;     C3 - C4     - H5    
    55     56     58      1    1.2002e+02    5.7572e+02 ;     C3 - C4     - C5    
    55     64     62      1    1.2002e+02    5.7572e+02 ;     C3 - C8     - C7    
    55     64     65      1    1.1988e+02    4.0752e+02 ;     C3 - C8     - H9    
    56     55     64      1    1.2002e+02    5.7572e+02 ;     C4 - C3     - C8    
    56     58     59      1    1.1988e+02    4.0752e+02 ;     C4 - C5     - H6    
    56     58     60      1    1.2002e+02    5.7572e+02 ;     C4 - C5     - C6    
    57     56     58      1    1.1988e+02    4.0752e+02 ;     H5 - C4     - C5    
    58     60     61      1    1.1988e+02    4.0752e+02 ;     C5 - C6     - H7    
    58     60     62      1    1.2002e+02    5.7572e+02 ;     C5 - C6     - C7    
    59     58     60      1    1.1988e+02    4.0752e+02 ;     H6 - C5     - C6    
    60     62     63      1    1.1988e+02    4.0752e+02 ;     C6 - C7     - H8    
    60     62     64      1    1.2002e+02    5.7572e+02 ;     C6 - C7     - C8    
    61     60     62      1    1.1988e+02    4.0752e+02 ;     H7 - C6     - C7    
    62     64     65      1    1.1988e+02    4.0752e+02 ;     C7 - C8     - H9    
    63     62     64      1    1.1988e+02    4.0752e+02 ;     H8 - C7     - C8    
    66     69     70      1    1.2320e+02    7.0793e+02 ;     CA - C      - O     
    66     69     71      1    1.1518e+02    7.0542e+02 ;     CA - C      - N     
    67     66     68      1    1.0846e+02    3.2468e+02 ;    H10 - CA     - H11   
    67     66     69      1    1.0822e+02    3.9748e+02 ;    H10 - CA     - C     
    68     66     69      1    1.0822e+02    3.9748e+02 ;    H11 - CA     - C     
    69     71     72      1    1.2069e+02    5.4643e+02 ;      C - N      - C1    
    69     71     89      1    1.2069e+02    5.4643e+02 ;      C - N      - CA    
    70     69     71      1    1.2305e+02    9.5228e+02 ;      O - C      - N     
    71     72     73      1    1.0888e+02    5.1463e+02 ;      N - C1     - H1    
    71     72     74      1    1.1161e+02    6.9622e+02 ;      N - C1     - C2    
    71     72     78      1    1.1238e+02    6.9873e+02 ;      N - C1     - C3    
    71     89     90      1    1.0888e+02    5.1463e+02 ;      N - CA     - H10   
    71     89     91      1    1.0888e+02    5.1463e+02 ;      N - CA     - H11   
    71     89     92      1    1.0906e+02    7.0710e+02 ;      N - CA     - C     
    72     71     89      1    1.1564e+02    5.4308e+02 ;     C1 - N      - CA    
    72     74     75      1    1.0980e+02    3.9162e+02 ;     C1 - C2     - H2    
    72     74     76      1    1.0980e+02    3.9162e+02 ;     C1 - C2     - H3    
    72     74     77      1    1.0980e+02    3.9162e+02 ;     C1 - C2     - H4    
    72     78     79      1    1.2077e+02    5.4894e+02 ;     C1 - C3     - C4    
    72     78     87      1    1.2077e+02    5.4894e+02 ;     C1 - C3     - C8    
    73     72     74      1    1.0956e+02    3.9246e+02 ;     H1 - C1     - C2    
    73     72     78      1    1.0956e+02    3.9748e+02 ;     H1 - C1     - C3    
    74     72     78      1    1.1207e+02    5.4559e+02 ;     C2 - C1     - C3    
    75     74     76      1    1.0758e+02    3.2635e+02 ;     H2 - C2     - H3    
    75     74     77      1    1.0758e+02    3.2635e+02 ;     H2 - C2     - H4    
    76     74     77      1    1.0758e+02    3.2635e+02 ;     H3 - C2     - H4    
    78     79     80      1    1.1988e+02    4.0752e+02 ;     C3 - C4     - H5    
    78     79     81      1    1.2002e+02    5.7572e+02 ;     C3 - C4     - C5    
    78     87     85      1    1.2002e+02    5.7572e+02 ;     C3 - C8     - C7    
    78     87     88      1    1.1988e+02    4.0752e+02 ;     C3 - C8     - H9    
    79     78     87      1    1.2002e+02    5.7572e+02 ;     C4 - C3     - C8    
    79     81     82      1    1.1988e+02    4.0752e+02 ;     C4 - C5     - H6    
    79     81     83      1    1.2002e+02    5.7572e+02 ;     C4 - C5     - C6    
    80     79     81      1    1.1988e+02    4.0752e+02 ;     H5 - C4     - C5    
    81     83     84      1    1.1988e+02    4.0752e+02 ;     C5 - C6     - H7    
    81     83     85      1    1.2002e+02    5.7572e+02 ;     C5 - C6     - C7    
    82     81     83      1    1.1988e+02    4.0752e+02 ;     H6 - C5     - C6    
    83     85     86      1    1.1988e+02    4.0752e+02 ;     C6 - C7     - H8    
    83     85     87      1    1.2002e+02    5.7572e+02 ;     C6 - C7     - C8    
    84     83     85      1    1.1988e+02    4.0752e+02 ;     H7 - C6     - C7    
    85     87     88      1    1.1988e+02    4.0752e+02 ;     C7 - C8     - H9    
    86     85     87      1    1.1988e+02    4.0752e+02 ;     H8 - C7     - C8    
    89     92     93      1    1.2320e+02    7.0793e+02 ;     CA - C      - O     
    89     92     94      1    1.1518e+02    7.0542e+02 ;     CA - C      - N     
    90     89     91      1    1.0846e+02    3.2468e+02 ;    H10 - CA     - H11   
    90     89     92      1    1.0822e+02    3.9748e+02 ;    H10 - CA     - C     
    91     89     92      1    1.0822e+02    3.9748e+02 ;    H11 - CA     - C     
    92     94     95      1    1.2069e+02    5.4643e+02 ;      C - N      - C1    
    92     94    112      1    1.2069e+02    5.4643e+02 ;      C - N      - CA    
    93     92     94      1    1.2305e+02    9.5228e+02 ;      O - C      - N     
    94     95     96      1    1.0888e+02    5.1463e+02 ;      N - C1     - H1    
    94     95     97      1    1.1161e+02    6.9622e+02 ;      N - C1     - C2    
    94     95    101      1    1.1238e+02    6.9873e+02 ;      N - C1     - C3    
    94    112    113      1    1.0888e+02    5.1463e+02 ;      N - CA     - H10   
    94    112    114      1    1.0888e+02    5.1463e+02 ;      N - CA     - H11   
    94    112    115      1    1.0906e+02    7.0710e+02 ;      N - CA     - C     
    95     94    112      1    1.1564e+02    5.4308e+02 ;     C1 - N      - CA    
    95     97     98      1    1.0980e+02    3.9162e+02 ;     C1 - C2     - H2    
    95     97     99      1    1.0980e+02    3.9162e+02 ;     C1 - C2     - H3    
    95     97    100      1    1.0980e+02    3.9162e+02 ;     C1 - C2     - H4    
    95    101    102      1    1.2077e+02    5.4894e+02 ;     C1 - C3     - C4    
    95    101    110      1    1.2077e+02    5.4894e+02 ;     C1 - C3     - C8    
    96     95     97      1    1.0956e+02    3.9246e+02 ;     H1 - C1     - C2    
    96     95    101      1    1.0956e+02    3.9748e+02 ;     H1 - C1     - C3    
    97     95    101      1    1.1207e+02    5.4559e+02 ;     C2 - C1     - C3    
    98     97     99      1    1.0758e+02    3.2635e+02 ;     H2 - C2     - H3    
    98     97    100      1    1.0758e+02    3.2635e+02 ;     H2 - C2     - H4    
    99     97    100      1    1.0758e+02    3.2635e+02 ;     H3 - C2     - H4    
   101    102    103      1    1.1988e+02    4.0752e+02 ;     C3 - C4     - H5    
   101    102    104      1    1.2002e+02    5.7572e+02 ;     C3 - C4     - C5    
   101    110    108      1    1.2002e+02    5.7572e+02 ;     C3 - C8     - C7    
   101    110    111      1    1.1988e+02    4.0752e+02 ;     C3 - C8     - H9    
   102    101    110      1    1.2002e+02    5.7572e+02 ;     C4 - C3     - C8    
   102    104    105      1    1.1988e+02    4.0752e+02 ;     C4 - C5     - H6    
   102    104    106      1    1.2002e+02    5.7572e+02 ;     C4 - C5     - C6    
   103    102    104      1    1.1988e+02    4.0752e+02 ;     H5 - C4     - C5    
   104    106    107      1    1.1988e+02    4.0752e+02 ;     C5 - C6     - H7    
   104    106    108      1    1.2002e+02    5.7572e+02 ;     C5 - C6     - C7    
   105    104    106      1    1.1988e+02    4.0752e+02 ;     H6 - C5     - C6    
   106    108    109      1    1.1988e+02    4.0752e+02 ;     C6 - C7     - H8    
   106    108    110      1    1.2002e+02    5.7572e+02 ;     C6 - C7     - C8    
   107    106    108      1    1.1988e+02    4.0752e+02 ;     H7 - C6     - C7    
   108    110    111      1    1.1988e+02    4.0752e+02 ;     C7 - C8     - H9    
   109    108    110      1    1.1988e+02    4.0752e+02 ;     H8 - C7     - C8    
   112    115    116      1    1.2320e+02    7.0793e+02 ;     CA - C      - O     
   112    115    117      1    1.1518e+02    7.0542e+02 ;     CA - C      - N     
   113    112    114      1    1.0846e+02    3.2468e+02 ;    H10 - CA     - H11   
   113    112    115      1    1.0822e+02    3.9748e+02 ;    H10 - CA     - C     
   114    112    115      1    1.0822e+02    3.9748e+02 ;    H11 - CA     - C     
   115    117    118      1    1.2069e+02    5.4643e+02 ;      C - N      - C1    
   115    117    135      1    1.2069e+02    5.4643e+02 ;      C - N      - CA    
   116    115    117      1    1.2305e+02    9.5228e+02 ;      O - C      - N     
   117    118    119      1    1.0888e+02    5.1463e+02 ;      N - C1     - H1    
   117    118    120      1    1.1161e+02    6.9622e+02 ;      N - C1     - C2    
   117    118    124      1    1.1238e+02    6.9873e+02 ;      N - C1     - C3    
   117    135    136      1    1.0888e+02    5.1463e+02 ;      N - CA     - H10   
   117    135    137      1    1.0888e+02    5.1463e+02 ;      N - CA     - H11   
   117    135    138      1    1.0906e+02    7.0710e+02 ;      N - CA     - C     
   118    117    135      1    1.1564e+02    5.4308e+02 ;     C1 - N      - CA    
   118    120    121      1    1.0980e+02    3.9162e+02 ;     C1 - C2     - H2    
   118    120    122      1    1.0980e+02    3.9162e+02 ;     C1 - C2     - H3    
   118    120    123      1    1.0980e+02    3.9162e+02 ;     C1 - C2     - H4    
   118    124    125      1    1.2077e+02    5.4894e+02 ;     C1 - C3     - C4    
   118    124    133      1    1.2077e+02    5.4894e+02 ;     C1 - C3     - C8    
   119    118    120      1    1.0956e+02    3.9246e+02 ;     H1 - C1     - C2    
   119    118    124      1    1.0956e+02    3.9748e+02 ;     H1 - C1     - C3    
   120    118    124      1    1.1207e+02    5.4559e+02 ;     C2 - C1     - C3    
   121    120    122      1    1.0758e+02    3.2635e+02 ;     H2 - C2     - H3    
   121    120    123      1    1.0758e+02    3.2635e+02 ;     H2 - C2     - H4    
   122    120    123      1    1.0758e+02    3.2635e+02 ;     H3 - C2     - H4    
   124    125    126      1    1.1988e+02    4.0752e+02 ;     C3 - C4     - H5    
   124    125    127      1    1.2002e+02    5.7572e+02 ;     C3 - C4     - C5    
   124    133    131      1    1.2002e+02    5.7572e+02 ;     C3 - C8     - C7    
   124    133    134      1    1.1988e+02    4.0752e+02 ;     C3 - C8     - H9    
   125    124    133      1    1.2002e+02    5.7572e+02 ;     C4 - C3     - C8    
   125    127    128      1    1.1988e+02    4.0752e+02 ;     C4 - C5     - H6    
   125    127    129      1    1.2002e+02    5.7572e+02 ;     C4 - C5     - C6    
   126    125    127      1    1.1988e+02    4.0752e+02 ;     H5 - C4     - C5    
   127    129    130      1    1.1988e+02    4.0752e+02 ;     C5 - C6     - H7    
   127    129    131      1    1.2002e+02    5.7572e+02 ;     C5 - C6     - C7    
   128    127    129      1    1.1988e+02    4.0752e+02 ;     H6 - C5     - C6    
   129    131    132      1    1.1988e+02    4.0752e+02 ;     C6 - C7     - H8    
   129    131    133      1    1.2002e+02    5.7572e+02 ;     C6 - C7     - C8    
   130    129    131      1    1.1988e+02    4.0752e+02 ;     H7 - C6     - C7    
   131    133    134      1    1.1988e+02    4.0752e+02 ;     C7 - C8     - H9    
   132    131    133      1    1.1988e+02    4.0752e+02 ;     H8 - C7     - C8    
   135    138    139      1    1.2320e+02    7.0793e+02 ;     CA - C      - O     
   135    138    140      1    1.1518e+02    7.0542e+02 ;     CA - C      - N     
   136    135    137      1    1.0846e+02    3.2468e+02 ;    H10 - CA     - H11   
   136    135    138      1    1.0822e+02    3.9748e+02 ;    H10 - CA     - C     
   137    135    138      1    1.0822e+02    3.9748e+02 ;    H11 - CA     - C     
   138    140    141      1    1.2069e+02    5.4643e+02 ;      C - N      - C1    
   138    140    158      1    1.2069e+02    5.4643e+02 ;      C - N      - CA    
   139    138    140      1    1.2305e+02    9.5228e+02 ;      O - C      - N     
   140    141    142      1    1.0888e+02    5.1463e+02 ;      N - C1     - H1    
   140    141    143      1    1.1161e+02    6.9622e+02 ;      N - C1     - C2    
   140    141    147      1    1.1238e+02    6.9873e+02 ;      N - C1     - C3    
   140    158    159      1    1.0888e+02    5.1463e+02 ;      N - CA     - H10   
   140    158    160      1    1.0888e+02    5.1463e+02 ;      N - CA     - H11   
   140    158    161      1    1.0906e+02    7.0710e+02 ;      N - CA     - C     
   141    140    158      1    1.1564e+02    5.4308e+02 ;     C1 - N      - CA    
   141    143    144      1    1.0980e+02    3.9162e+02 ;     C1 - C2     - H2    
   141    143    145      1    1.0980e+02    3.9162e+02 ;     C1 - C2     - H3    
   141    143    146      1    1.0980e+02    3.9162e+02 ;     C1 - C2     - H4    
   141    147    148      1    1.2077e+02    5.4894e+02 ;     C1 - C3     - C4    
   141    147    156      1    1.2077e+02    5.4894e+02 ;     C1 - C3     - C8    
   142    141    143      1    1.0956e+02    3.9246e+02 ;     H1 - C1     - C2    
   142    141    147      1    1.0956e+02    3.9748e+02 ;     H1 - C1     - C3    
   143    141    147      1    1.1207e+02    5.4559e+02 ;     C2 - C1     - C3    
   144    143    145      1    1.0758e+02    3.2635e+02 ;     H2 - C2     - H3    
   144    143    146      1    1.0758e+02    3.2635e+02 ;     H2 - C2     - H4    
   145    143    146      1    1.0758e+02    3.2635e+02 ;     H3 - C2     - H4    
   147    148    149      1    1.1988e+02    4.0752e+02 ;     C3 - C4     - H5    
   147    148    150      1    1.2002e+02    5.7572e+02 ;     C3 - C4     - C5    
   147    156    154      1    1.2002e+02    5.7572e+02 ;     C3 - C8     - C7    
   147    156    157      1    1.1988e+02    4.0752e+02 ;     C3 - C8     - H9    
   148    147    156      1    1.2002e+02    5.7572e+02 ;     C4 - C3     - C8    
   148    150    151      1    1.1988e+02    4.0752e+02 ;     C4 - C5     - H6    
   148    150    152      1    1.2002e+02    5.7572e+02 ;     C4 - C5     - C6    
   149    148    150      1    1.1988e+02    4.0752e+02 ;     H5 - C4     - C5    
   150    152    153      1    1.1988e+02    4.0752e+02 ;     C5 - C6     - H7    
   150    152    154      1    1.2002e+02    5.7572e+02 ;     C5 - C6     - C7    
   151    150    152      1    1.1988e+02    4.0752e+02 ;     H6 - C5     - C6    
   152    154    155      1    1.1988e+02    4.0752e+02 ;     C6 - C7     - H8    
   152    154    156      1    1.2002e+02    5.7572e+02 ;     C6 - C7     - C8    
   153    152    154      1    1.1988e+02    4.0752e+02 ;     H7 - C6     - C7    
   154    156    157      1    1.1988e+02    4.0752e+02 ;     C7 - C8     - H9    
   155    154    156      1    1.1988e+02    4.0752e+02 ;     H8 - C7     - C8    
   158    161    162      1    1.2320e+02    7.0793e+02 ;     CA - C      - O     
   158    161    163      1    1.1518e+02    7.0542e+02 ;     CA - C      - N     
   159    158    160      1    1.0846e+02    3.2468e+02 ;    H10 - CA     - H11   
   159    158    161      1    1.0822e+02    3.9748e+02 ;    H10 - CA     - C     
   160    158    161      1    1.0822e+02    3.9748e+02 ;    H11 - CA     - C     
   161    163    164      1    1.1755e+02    4.0752e+02 ;      C - N      - H1    
   161    163    165      1    1.1755e+02    4.0752e+02 ;      C - N      - H2    
   162    161    163      1    1.2305e+02    9.5228e+02 ;      O - C      - N     
   164    163    165      1    1.1795e+02    3.2635e+02 ;     H1 - N      - H2    

[ dihedrals ] ; propers
; for gromacs 4.5 or higher, using funct 9
;    i      j      k      l   func   phase     kd      pn
     1      2      3      4      9     0.00   2.48304   2 ;      H-     N-    C1-    H1
     1      2      3      5      9     0.00   2.48304   2 ;      H-     N-    C1-    C2
     1      2      3      9      9     0.00   2.48304   2 ;      H-     N-    C1-    C3
     1      2     20     21      9     0.00   2.48304   2 ;      H-     N-    CA-   H10
     1      2     20     22      9     0.00   2.48304   2 ;      H-     N-    CA-   H11
     1      2     20     23      9     0.00   2.48304   2 ;      H-     N-    CA-     C
     2      3      5      6      9     0.00   0.68090   3 ;      N-    C1-    C2-    H2
     2      3      5      7      9     0.00   0.68090   3 ;      N-    C1-    C2-    H3
     2      3      5      8      9     0.00   0.68090   3 ;      N-    C1-    C2-    H4
     2      3      9     10      9     0.00  -1.25491   2 ;      N-    C1-    C3-    C4
     2      3      9     18      9     0.00  -1.25491   2 ;      N-    C1-    C3-    C8
     2     20     23     24      9   180.00   0.91161   2 ;      N-    CA-     C-     O
     2     20     23     25      9   180.00   6.88318   2 ;      N-    CA-     C-     N
     2     20     23     25      9   180.00  -1.08550   1 ;      N-    CA-     C-     N
     3      2     20     21      9     0.00   2.48304   2 ;     C1-     N-    CA-   H10
     3      2     20     22      9     0.00   2.48304   2 ;     C1-     N-    CA-   H11
     3      2     20     23      9     0.00   2.48304   2 ;     C1-     N-    CA-     C
     3      9     10     11      9   180.00  13.73867   2 ;     C1-    C3-    C4-    H5
     3      9     10     12      9   180.00  13.73867   2 ;     C1-    C3-    C4-    C5
     3      9     18     16      9   180.00  13.73867   2 ;     C1-    C3-    C8-    C7
     3      9     18     19      9   180.00  13.73867   2 ;     C1-    C3-    C8-    H9
     4      3      2     20      9     0.00   2.48304   2 ;     H1-    C1-     N-    CA
     4      3      5      6      9     0.00   0.68090   3 ;     H1-    C1-    C2-    H2
     4      3      5      7      9     0.00   0.68090   3 ;     H1-    C1-    C2-    H3
     4      3      5      8      9     0.00   0.68090   3 ;     H1-    C1-    C2-    H4
     4      3      9     10      9     0.00  -1.25491   2 ;     H1-    C1-    C3-    C4
     4      3      9     18      9     0.00  -1.25491   2 ;     H1-    C1-    C3-    C8
     5      3      2     20      9     0.00   2.48304   2 ;     C2-    C1-     N-    CA
     5      3      9     10      9   180.00  -0.20401   2 ;     C2-    C1-    C3-    C4
     5      3      9     18      9   180.00  -0.20401   2 ;     C2-    C1-    C3-    C8
     6      5      3      9      9     0.00   0.68090   3 ;     H2-    C2-    C1-    C3
     7      5      3      9      9     0.00   0.68090   3 ;     H3-    C2-    C1-    C3
     8      5      3      9      9     0.00   0.68090   3 ;     H4-    C2-    C1-    C3
     9      3      2     20      9     0.00   2.48304   2 ;     C3-    C1-     N-    CA
     9     10     12     13      9   180.00  13.73867   2 ;     C3-    C4-    C5-    H6
     9     10     12     14      9   180.00  13.73867   2 ;     C3-    C4-    C5-    C6
     9     18     16     14      9   180.00  13.73867   2 ;     C3-    C8-    C7-    C6
     9     18     16     17      9   180.00  13.73867   2 ;     C3-    C8-    C7-    H8
    10      9     18     16      9   180.00  13.73867   2 ;     C4-    C3-    C8-    C7
    10      9     18     19      9   180.00  13.73867   2 ;     C4-    C3-    C8-    H9
    10     12     14     15      9   180.00  13.73867   2 ;     C4-    C5-    C6-    H7
    10     12     14     16      9   180.00  13.73867   2 ;     C4-    C5-    C6-    C7
    11     10      9     18      9   180.00  13.73867   2 ;     H5-    C4-    C3-    C8
    11     10     12     13      9   180.00  13.73867   2 ;     H5-    C4-    C5-    H6
    11     10     12     14      9   180.00  13.73867   2 ;     H5-    C4-    C5-    C6
    12     10      9     18      9   180.00  13.73867   2 ;     C5-    C4-    C3-    C8
    12     14     16     17      9   180.00  13.73867   2 ;     C5-    C6-    C7-    H8
    12     14     16     18      9   180.00  13.73867   2 ;     C5-    C6-    C7-    C8
    13     12     14     15      9   180.00  13.73867   2 ;     H6-    C5-    C6-    H7
    13     12     14     16      9   180.00  13.73867   2 ;     H6-    C5-    C6-    C7
    14     16     18     19      9   180.00  13.73867   2 ;     C6-    C7-    C8-    H9
    15     14     16     17      9   180.00  13.73867   2 ;     H7-    C6-    C7-    H8
    15     14     16     18      9   180.00  13.73867   2 ;     H7-    C6-    C7-    C8
    17     16     18     19      9   180.00  13.73867   2 ;     H8-    C7-    C8-    H9
    20     23     25     26      9     0.00   6.02458   1 ;     CA-     C-     N-    C1
    20     23     25     26      9   180.00  10.82505   2 ;     CA-     C-     N-    C1
    20     23     25     43      9     0.00   6.02458   1 ;     CA-     C-     N-    CA
    20     23     25     43      9   180.00  10.82505   2 ;     CA-     C-     N-    CA
    21     20     23     24      9     0.00  -3.54962   1 ;    H10-    CA-     C-     O
    21     20     23     24      9   180.00   0.91161   2 ;    H10-    CA-     C-     O
    21     20     23     24      9   180.00  -1.52348   3 ;    H10-    CA-     C-     O
    21     20     23     25      9   180.00   0.91161   2 ;    H10-    CA-     C-     N
    22     20     23     24      9     0.00  -3.54962   1 ;    H11-    CA-     C-     O
    22     20     23     24      9   180.00  -1.52348   3 ;    H11-    CA-     C-     O
    22     20     23     25      9   180.00   0.91161   2 ;    H11-    CA-     C-     N
    23     25     26     27      9   180.00  -1.43327   2 ;      C-     N-    C1-    H1
    23     25     26     28      9     0.00   0.71128   3 ;      C-     N-    C1-    C2
    23     25     26     28      9   180.00   0.41840   4 ;      C-     N-    C1-    C2
    23     25     26     28      9   180.00   4.26768   1 ;      C-     N-    C1-    C2
    23     25     26     32      9     0.00   2.48304   2 ;      C-     N-    C1-    C3
    23     25     43     44      9   180.00  -1.43327   2 ;      C-     N-    CA-   H10
    23     25     43     45      9   180.00  -1.43327   2 ;      C-     N-    CA-   H11
    23     25     43     46      9     0.00   4.17814   1 ;      C-     N-    CA-     C
    23     25     43     46      9   180.00  -0.71454   2 ;      C-     N-    CA-     C
    24     23     25     26      9   180.00  16.86851   2 ;      O-     C-     N-    C1
    24     23     25     43      9   180.00  16.86851   2 ;      O-     C-     N-    CA
    25     26     28     29      9     0.00   0.68090   3 ;      N-    C1-    C2-    H2
    25     26     28     30      9     0.00   0.68090   3 ;      N-    C1-    C2-    H3
    25     26     28     31      9     0.00   0.68090   3 ;      N-    C1-    C2-    H4
    25     26     32     33      9     0.00  -1.25491   2 ;      N-    C1-    C3-    C4
    25     26     32     41      9     0.00  -1.25491   2 ;      N-    C1-    C3-    C8
    25     43     46     47      9   180.00   0.91161   2 ;      N-    CA-     C-     O
    25     43     46     48      9   180.00   6.88318   2 ;      N-    CA-     C-     N
    25     43     46     48      9   180.00  -1.08550   1 ;      N-    CA-     C-     N
    26     25     43     44      9     0.00   2.48304   2 ;     C1-     N-    CA-   H10
    26     25     43     45      9     0.00   2.48304   2 ;     C1-     N-    CA-   H11
    26     25     43     46      9     0.00   2.48304   2 ;     C1-     N-    CA-     C
    26     32     33     34      9   180.00  13.73867   2 ;     C1-    C3-    C4-    H5
    26     32     33     35      9   180.00  13.73867   2 ;     C1-    C3-    C4-    C5
    26     32     41     39      9   180.00  13.73867   2 ;     C1-    C3-    C8-    C7
    26     32     41     42      9   180.00  13.73867   2 ;     C1-    C3-    C8-    H9
    27     26     25     43      9     0.00   2.48304   2 ;     H1-    C1-     N-    CA
    27     26     28     29      9     0.00   0.68090   3 ;     H1-    C1-    C2-    H2
    27     26     28     30      9     0.00   0.68090   3 ;     H1-    C1-    C2-    H3
    27     26     28     31      9     0.00   0.68090   3 ;     H1-    C1-    C2-    H4
    27     26     32     33      9     0.00  -1.25491   2 ;     H1-    C1-    C3-    C4
    27     26     32     41      9     0.00  -1.25491   2 ;     H1-    C1-    C3-    C8
    28     26     25     43      9     0.00   2.48304   2 ;     C2-    C1-     N-    CA
    28     26     32     33      9   180.00  -0.20401   2 ;     C2-    C1-    C3-    C4
    28     26     32     41      9   180.00  -0.20401   2 ;     C2-    C1-    C3-    C8
    29     28     26     32      9     0.00   0.68090   3 ;     H2-    C2-    C1-    C3
    30     28     26     32      9     0.00   0.68090   3 ;     H3-    C2-    C1-    C3
    31     28     26     32      9     0.00   0.68090   3 ;     H4-    C2-    C1-    C3
    32     26     25     43      9     0.00   2.48304   2 ;     C3-    C1-     N-    CA
    32     33     35     36      9   180.00  13.73867   2 ;     C3-    C4-    C5-    H6
    32     33     35     37      9   180.00  13.73867   2 ;     C3-    C4-    C5-    C6
    32     41     39     37      9   180.00  13.73867   2 ;     C3-    C8-    C7-    C6
    32     41     39     40      9   180.00  13.73867   2 ;     C3-    C8-    C7-    H8
    33     32     41     39      9   180.00  13.73867   2 ;     C4-    C3-    C8-    C7
    33     32     41     42      9   180.00  13.73867   2 ;     C4-    C3-    C8-    H9
    33     35     37     38      9   180.00  13.73867   2 ;     C4-    C5-    C6-    H7
    33     35     37     39      9   180.00  13.73867   2 ;     C4-    C5-    C6-    C7
    34     33     32     41      9   180.00  13.73867   2 ;     H5-    C4-    C3-    C8
    34     33     35     36      9   180.00  13.73867   2 ;     H5-    C4-    C5-    H6
    34     33     35     37      9   180.00  13.73867   2 ;     H5-    C4-    C5-    C6
    35     33     32     41      9   180.00  13.73867   2 ;     C5-    C4-    C3-    C8
    35     37     39     40      9   180.00  13.73867   2 ;     C5-    C6-    C7-    H8
    35     37     39     41      9   180.00  13.73867   2 ;     C5-    C6-    C7-    C8
    36     35     37     38      9   180.00  13.73867   2 ;     H6-    C5-    C6-    H7
    36     35     37     39      9   180.00  13.73867   2 ;     H6-    C5-    C6-    C7
    37     39     41     42      9   180.00  13.73867   2 ;     C6-    C7-    C8-    H9
    38     37     39     40      9   180.00  13.73867   2 ;     H7-    C6-    C7-    H8
    38     37     39     41      9   180.00  13.73867   2 ;     H7-    C6-    C7-    C8
    40     39     41     42      9   180.00  13.73867   2 ;     H8-    C7-    C8-    H9
    43     46     48     49      9     0.00   6.02458   1 ;     CA-     C-     N-    C1
    43     46     48     49      9   180.00  10.82505   2 ;     CA-     C-     N-    C1
    43     46     48     66      9     0.00   6.02458   1 ;     CA-     C-     N-    CA
    43     46     48     66      9   180.00  10.82505   2 ;     CA-     C-     N-    CA
    44     43     46     47      9     0.00  -3.54962   1 ;    H10-    CA-     C-     O
    44     43     46     47      9   180.00   0.91161   2 ;    H10-    CA-     C-     O
    44     43     46     47      9   180.00  -1.52348   3 ;    H10-    CA-     C-     O
    44     43     46     48      9   180.00   0.91161   2 ;    H10-    CA-     C-     N
    45     43     46     47      9     0.00  -3.54962   1 ;    H11-    CA-     C-     O
    45     43     46     47      9   180.00   0.91161   2 ;    H11-    CA-     C-     O
    45     43     46     47      9   180.00  -1.52348   3 ;    H11-    CA-     C-     O
    45     43     46     48      9   180.00   0.91161   2 ;    H11-    CA-     C-     N
    46     48     49     50      9   180.00  -1.43327   2 ;      C-     N-    C1-    H1
    46     48     49     51      9     0.00   0.71128   3 ;      C-     N-    C1-    C2
    46     48     49     51      9   180.00   0.41840   4 ;      C-     N-    C1-    C2
    46     48     49     51      9   180.00   4.26768   1 ;      C-     N-    C1-    C2
    46     48     49     55      9     0.00   2.48304   2 ;      C-     N-    C1-    C3
    46     48     66     67      9   180.00  -1.43327   2 ;      C-     N-    CA-   H10
    46     48     66     68      9   180.00  -1.43327   2 ;      C-     N-    CA-   H11
    46     48     66     69      9     0.00   4.17814   1 ;      C-     N-    CA-     C
    46     48     66     69      9   180.00  -0.71454   2 ;      C-     N-    CA-     C
    47     46     48     49      9   180.00  16.86851   2 ;      O-     C-     N-    C1
    47     46     48     66      9   180.00  16.86851   2 ;      O-     C-     N-    CA
    48     49     51     52      9     0.00   0.68090   3 ;      N-    C1-    C2-    H2
    48     49     51     53      9     0.00   0.68090   3 ;      N-    C1-    C2-    H3
    48     49     51     54      9     0.00   0.68090   3 ;      N-    C1-    C2-    H4
    48     49     55     56      9     0.00  -1.25491   2 ;      N-    C1-    C3-    C4
    48     49     55     64      9     0.00  -1.25491   2 ;      N-    C1-    C3-    C8
    48     66     69     70      9   180.00   0.91161   2 ;      N-    CA-     C-     O
    48     66     69     71      9   180.00   6.88318   2 ;      N-    CA-     C-     N
    48     66     69     71      9   180.00  -1.08550   1 ;      N-    CA-     C-     N
    49     48     66     67      9     0.00   2.48304   2 ;     C1-     N-    CA-   H10
    49     48     66     68      9     0.00   2.48304   2 ;     C1-     N-    CA-   H11
    49     48     66     69      9     0.00   2.48304   2 ;     C1-     N-    CA-     C
    49     55     56     57      9   180.00  13.73867   2 ;     C1-    C3-    C4-    H5
    49     55     56     58      9   180.00  13.73867   2 ;     C1-    C3-    C4-    C5
    49     55     64     62      9   180.00  13.73867   2 ;     C1-    C3-    C8-    C7
    49     55     64     65      9   180.00  13.73867   2 ;     C1-    C3-    C8-    H9
    50     49     48     66      9     0.00   2.48304   2 ;     H1-    C1-     N-    CA
    50     49     51     52      9     0.00   0.68090   3 ;     H1-    C1-    C2-    H2
    50     49     51     53      9     0.00   0.68090   3 ;     H1-    C1-    C2-    H3
    50     49     51     54      9     0.00   0.68090   3 ;     H1-    C1-    C2-    H4
    50     49     55     56      9     0.00  -1.25491   2 ;     H1-    C1-    C3-    C4
    50     49     55     64      9     0.00  -1.25491   2 ;     H1-    C1-    C3-    C8
    51     49     48     66      9     0.00   2.48304   2 ;     C2-    C1-     N-    CA
    51     49     55     56      9   180.00  -0.20401   2 ;     C2-    C1-    C3-    C4
    51     49     55     64      9   180.00  -0.20401   2 ;     C2-    C1-    C3-    C8
    52     51     49     55      9     0.00   0.68090   3 ;     H2-    C2-    C1-    C3
    53     51     49     55      9     0.00   0.68090   3 ;     H3-    C2-    C1-    C3
    54     51     49     55      9     0.00   0.68090   3 ;     H4-    C2-    C1-    C3
    55     49     48     66      9     0.00   2.48304   2 ;     C3-    C1-     N-    CA
    55     56     58     59      9   180.00  13.73867   2 ;     C3-    C4-    C5-    H6
    55     56     58     60      9   180.00  13.73867   2 ;     C3-    C4-    C5-    C6
    55     64     62     60      9   180.00  13.73867   2 ;     C3-    C8-    C7-    C6
    55     64     62     63      9   180.00  13.73867   2 ;     C3-    C8-    C7-    H8
    56     55     64     62      9   180.00  13.73867   2 ;     C4-    C3-    C8-    C7
    56     55     64     65      9   180.00  13.73867   2 ;     C4-    C3-    C8-    H9
    56     58     60     61      9   180.00  13.73867   2 ;     C4-    C5-    C6-    H7
    56     58     60     62      9   180.00  13.73867   2 ;     C4-    C5-    C6-    C7
    57     56     55     64      9   180.00  13.73867   2 ;     H5-    C4-    C3-    C8
    57     56     58     59      9   180.00  13.73867   2 ;     H5-    C4-    C5-    H6
    57     56     58     60      9   180.00  13.73867   2 ;     H5-    C4-    C5-    C6
    58     56     55     64      9   180.00  13.73867   2 ;     C5-    C4-    C3-    C8
    58     60     62     63      9   180.00  13.73867   2 ;     C5-    C6-    C7-    H8
    58     60     62     64      9   180.00  13.73867   2 ;     C5-    C6-    C7-    C8
    59     58     60     61      9   180.00  13.73867   2 ;     H6-    C5-    C6-    H7
    59     58     60     62      9   180.00  13.73867   2 ;     H6-    C5-    C6-    C7
    60     62     64     65      9   180.00  13.73867   2 ;     C6-    C7-    C8-    H9
    61     60     62     63      9   180.00  13.73867   2 ;     H7-    C6-    C7-    H8
    61     60     62     64      9   180.00  13.73867   2 ;     H7-    C6-    C7-    C8
    63     62     64     65      9   180.00  13.73867   2 ;     H8-    C7-    C8-    H9
    66     69     71     72      9     0.00   6.02458   1 ;     CA-     C-     N-    C1
    66     69     71     72      9   180.00  10.82505   2 ;     CA-     C-     N-    C1
    66     69     71     89      9     0.00   6.02458   1 ;     CA-     C-     N-    CA
    66     69     71     89      9   180.00  10.82505   2 ;     CA-     C-     N-    CA
    67     66     69     70      9     0.00  -3.54962   1 ;    H10-    CA-     C-     O
    67     66     69     70      9   180.00   0.91161   2 ;    H10-    CA-     C-     O
    67     66     69     70      9   180.00  -1.52348   3 ;    H10-    CA-     C-     O
    67     66     69     71      9   180.00   0.91161   2 ;    H10-    CA-     C-     N
    68     66     69     70      9     0.00  -3.54962   1 ;    H11-    CA-     C-     O
    68     66     69     70      9   180.00   0.91161   2 ;    H11-    CA-     C-     O
    68     66     69     70      9   180.00  -1.52348   3 ;    H11-    CA-     C-     O
    68     66     69     71      9   180.00   0.91161   2 ;    H11-    CA-     C-     N
    69     71     72     73      9   180.00  -1.43327   2 ;      C-     N-    C1-    H1
    69     71     72     74      9     0.00   0.71128   3 ;      C-     N-    C1-    C2
    69     71     72     74      9   180.00   0.41840   4 ;      C-     N-    C1-    C2
    69     71     72     74      9   180.00   4.26768   1 ;      C-     N-    C1-    C2
    69     71     72     78      9     0.00   2.48304   2 ;      C-     N-    C1-    C3
    69     71     89     90      9   180.00  -1.43327   2 ;      C-     N-    CA-   H10
    69     71     89     91      9   180.00  -1.43327   2 ;      C-     N-    CA-   H11
    69     71     89     92      9     0.00   4.17814   1 ;      C-     N-    CA-     C
    69     71     89     92      9   180.00  -0.71454   2 ;      C-     N-    CA-     C
    70     69     71     72      9   180.00  16.86851   2 ;      O-     C-     N-    C1
    70     69     71     89      9   180.00  16.86851   2 ;      O-     C-     N-    CA
    71     72     74     75      9     0.00   0.68090   3 ;      N-    C1-    C2-    H2
    71     72     74     76      9     0.00   0.68090   3 ;      N-    C1-    C2-    H3
    71     72     74     77      9     0.00   0.68090   3 ;      N-    C1-    C2-    H4
    71     72     78     79      9     0.00  -1.25491   2 ;      N-    C1-    C3-    C4
    71     72     78     87      9     0.00  -1.25491   2 ;      N-    C1-    C3-    C8
    71     89     92     93      9   180.00   0.91161   2 ;      N-    CA-     C-     O
    71     89     92     94      9   180.00   6.88318   2 ;      N-    CA-     C-     N
    71     89     92     94      9   180.00  -1.08550   1 ;      N-    CA-     C-     N
    72     71     89     90      9     0.00   2.48304   2 ;     C1-     N-    CA-   H10
    72     71     89     91      9     0.00   2.48304   2 ;     C1-     N-    CA-   H11
    72     71     89     92      9     0.00   2.48304   2 ;     C1-     N-    CA-     C
    72     78     79     80      9   180.00  13.73867   2 ;     C1-    C3-    C4-    H5
    72     78     79     81      9   180.00  13.73867   2 ;     C1-    C3-    C4-    C5
    72     78     87     85      9   180.00  13.73867   2 ;     C1-    C3-    C8-    C7
    72     78     87     88      9   180.00  13.73867   2 ;     C1-    C3-    C8-    H9
    73     72     71     89      9     0.00   2.48304   2 ;     H1-    C1-     N-    CA
    73     72     74     75      9     0.00   0.68090   3 ;     H1-    C1-    C2-    H2
    73     72     74     76      9     0.00   0.68090   3 ;     H1-    C1-    C2-    H3
    73     72     74     77      9     0.00   0.68090   3 ;     H1-    C1-    C2-    H4
    73     72     78     79      9     0.00  -1.25491   2 ;     H1-    C1-    C3-    C4
    73     72     78     87      9     0.00  -1.25491   2 ;     H1-    C1-    C3-    C8
    74     72     71     89      9     0.00   2.48304   2 ;     C2-    C1-     N-    CA
    74     72     78     79      9   180.00  -0.20401   2 ;     C2-    C1-    C3-    C4
    74     72     78     87      9   180.00  -0.20401   2 ;     C2-    C1-    C3-    C8
    75     74     72     78      9     0.00   0.68090   3 ;     H2-    C2-    C1-    C3
    76     74     72     78      9     0.00   0.68090   3 ;     H3-    C2-    C1-    C3
    77     74     72     78      9     0.00   0.68090   3 ;     H4-    C2-    C1-    C3
    78     72     71     89      9     0.00   2.48304   2 ;     C3-    C1-     N-    CA
    78     79     81     82      9   180.00  13.73867   2 ;     C3-    C4-    C5-    H6
    78     79     81     83      9   180.00  13.73867   2 ;     C3-    C4-    C5-    C6
    78     87     85     83      9   180.00  13.73867   2 ;     C3-    C8-    C7-    C6
    78     87     85     86      9   180.00  13.73867   2 ;     C3-    C8-    C7-    H8
    79     78     87     85      9   180.00  13.73867   2 ;     C4-    C3-    C8-    C7
    79     78     87     88      9   180.00  13.73867   2 ;     C4-    C3-    C8-    H9
    79     81     83     84      9   180.00  13.73867   2 ;     C4-    C5-    C6-    H7
    79     81     83     85      9   180.00  13.73867   2 ;     C4-    C5-    C6-    C7
    80     79     78     87      9   180.00  13.73867   2 ;     H5-    C4-    C3-    C8
    80     79     81     82      9   180.00  13.73867   2 ;     H5-    C4-    C5-    H6
    80     79     81     83      9   180.00  13.73867   2 ;     H5-    C4-    C5-    C6
    81     79     78     87      9   180.00  13.73867   2 ;     C5-    C4-    C3-    C8
    81     83     85     86      9   180.00  13.73867   2 ;     C5-    C6-    C7-    H8
    81     83     85     87      9   180.00  13.73867   2 ;     C5-    C6-    C7-    C8
    82     81     83     84      9   180.00  13.73867   2 ;     H6-    C5-    C6-    H7
    82     81     83     85      9   180.00  13.73867   2 ;     H6-    C5-    C6-    C7
    83     85     87     88      9   180.00  13.73867   2 ;     C6-    C7-    C8-    H9
    84     83     85     86      9   180.00  13.73867   2 ;     H7-    C6-    C7-    H8
    84     83     85     87      9   180.00  13.73867   2 ;     H7-    C6-    C7-    C8
    86     85     87     88      9   180.00  13.73867   2 ;     H8-    C7-    C8-    H9
    89     92     94     95      9     0.00   6.02458   1 ;     CA-     C-     N-    C1
    89     92     94     95      9   180.00  10.82505   2 ;     CA-     C-     N-    C1
    89     92     94    112      9     0.00   6.02458   1 ;     CA-     C-     N-    CA
    89     92     94    112      9   180.00  10.82505   2 ;     CA-     C-     N-    CA
    90     89     92     93      9     0.00  -3.54962   1 ;    H10-    CA-     C-     O
    90     89     92     93      9   180.00   0.91161   2 ;    H10-    CA-     C-     O
    90     89     92     93      9   180.00  -1.52348   3 ;    H10-    CA-     C-     O
    90     89     92     94      9   180.00   0.91161   2 ;    H10-    CA-     C-     N
    91     89     92     93      9     0.00  -3.54962   1 ;    H11-    CA-     C-     O
    91     89     92     93      9   180.00   0.91161   2 ;    H11-    CA-     C-     O
    91     89     92     93      9   180.00  -1.52348   3 ;    H11-    CA-     C-     O
    91     89     92     94      9   180.00   0.91161   2 ;    H11-    CA-     C-     N
    92     94     95     96      9   180.00  -1.43327   2 ;      C-     N-    C1-    H1
    92     94     95     97      9     0.00   0.71128   3 ;      C-     N-    C1-    C2
    92     94     95     97      9   180.00   0.41840   4 ;      C-     N-    C1-    C2
    92     94     95     97      9   180.00   4.26768   1 ;      C-     N-    C1-    C2
    92     94     95    101      9     0.00   2.48304   2 ;      C-     N-    C1-    C3
    92     94    112    113      9   180.00  -1.43327   2 ;      C-     N-    CA-   H10
    92     94    112    114      9   180.00  -1.43327   2 ;      C-     N-    CA-   H11
    92     94    112    115      9     0.00   4.17814   1 ;      C-     N-    CA-     C
    92     94    112    115      9   180.00  -0.71454   2 ;      C-     N-    CA-     C
    93     92     94     95      9   180.00  16.86851   2 ;      O-     C-     N-    C1
    93     92     94    112      9   180.00  16.86851   2 ;      O-     C-     N-    CA
    94     95     97     98      9     0.00   0.68090   3 ;      N-    C1-    C2-    H2
    94     95     97     99      9     0.00   0.68090   3 ;      N-    C1-    C2-    H3
    94     95     97    100      9     0.00   0.68090   3 ;      N-    C1-    C2-    H4
    94     95    101    102      9     0.00  -1.25491   2 ;      N-    C1-    C3-    C4
    94     95    101    110      9     0.00  -1.25491   2 ;      N-    C1-    C3-    C8
    94    112    115    116      9   180.00   0.91161   2 ;      N-    CA-     C-     O
    94    112    115    117      9   180.00   6.88318   2 ;      N-    CA-     C-     N
    94    112    115    117      9   180.00  -1.08550   1 ;      N-    CA-     C-     N
    95     94    112    113      9     0.00   2.48304   2 ;     C1-     N-    CA-   H10
    95     94    112    114      9     0.00   2.48304   2 ;     C1-     N-    CA-   H11
    95     94    112    115      9     0.00   2.48304   2 ;     C1-     N-    CA-     C
    95    101    102    103      9   180.00  13.73867   2 ;     C1-    C3-    C4-    H5
    95    101    102    104      9   180.00  13.73867   2 ;     C1-    C3-    C4-    C5
    95    101    110    108      9   180.00  13.73867   2 ;     C1-    C3-    C8-    C7
    95    101    110    111      9   180.00  13.73867   2 ;     C1-    C3-    C8-    H9
    96     95     94    112      9     0.00   2.48304   2 ;     H1-    C1-     N-    CA
    96     95     97     98      9     0.00   0.68090   3 ;     H1-    C1-    C2-    H2
    96     95     97     99      9     0.00   0.68090   3 ;     H1-    C1-    C2-    H3
    96     95     97    100      9     0.00   0.68090   3 ;     H1-    C1-    C2-    H4
    96     95    101    102      9     0.00  -1.25491   2 ;     H1-    C1-    C3-    C4
    96     95    101    110      9     0.00  -1.25491   2 ;     H1-    C1-    C3-    C8
    97     95     94    112      9     0.00   2.48304   2 ;     C2-    C1-     N-    CA
    97     95    101    102      9   180.00  -0.20401   2 ;     C2-    C1-    C3-    C4
    97     95    101    110      9   180.00  -0.20401   2 ;     C2-    C1-    C3-    C8
    98     97     95    101      9     0.00   0.68090   3 ;     H2-    C2-    C1-    C3
    99     97     95    101      9     0.00   0.68090   3 ;     H3-    C2-    C1-    C3
   100     97     95    101      9     0.00   0.68090   3 ;     H4-    C2-    C1-    C3
   101     95     94    112      9     0.00   2.48304   2 ;     C3-    C1-     N-    CA
   101    102    104    105      9   180.00  13.73867   2 ;     C3-    C4-    C5-    H6
   101    102    104    106      9   180.00  13.73867   2 ;     C3-    C4-    C5-    C6
   101    110    108    106      9   180.00  13.73867   2 ;     C3-    C8-    C7-    C6
   101    110    108    109      9   180.00  13.73867   2 ;     C3-    C8-    C7-    H8
   102    101    110    108      9   180.00  13.73867   2 ;     C4-    C3-    C8-    C7
   102    101    110    111      9   180.00  13.73867   2 ;     C4-    C3-    C8-    H9
   102    104    106    107      9   180.00  13.73867   2 ;     C4-    C5-    C6-    H7
   102    104    106    108      9   180.00  13.73867   2 ;     C4-    C5-    C6-    C7
   103    102    101    110      9   180.00  13.73867   2 ;     H5-    C4-    C3-    C8
   103    102    104    105      9   180.00  13.73867   2 ;     H5-    C4-    C5-    H6
   103    102    104    106      9   180.00  13.73867   2 ;     H5-    C4-    C5-    C6
   104    102    101    110      9   180.00  13.73867   2 ;     C5-    C4-    C3-    C8
   104    106    108    109      9   180.00  13.73867   2 ;     C5-    C6-    C7-    H8
   104    106    108    110      9   180.00  13.73867   2 ;     C5-    C6-    C7-    C8
   105    104    106    107      9   180.00  13.73867   2 ;     H6-    C5-    C6-    H7
   105    104    106    108      9   180.00  13.73867   2 ;     H6-    C5-    C6-    C7
   106    108    110    111      9   180.00  13.73867   2 ;     C6-    C7-    C8-    H9
   107    106    108    109      9   180.00  13.73867   2 ;     H7-    C6-    C7-    H8
   107    106    108    110      9   180.00  13.73867   2 ;     H7-    C6-    C7-    C8
   109    108    110    111      9   180.00  13.73867   2 ;     H8-    C7-    C8-    H9
   112    115    117    118      9     0.00   6.02458   1 ;     CA-     C-     N-    C1
   112    115    117    118      9   180.00  10.82505   2 ;     CA-     C-     N-    C1
   112    115    117    135      9     0.00   6.02458   1 ;     CA-     C-     N-    CA
   112    115    117    135      9   180.00  10.82505   2 ;     CA-     C-     N-    CA
   113    112    115    116      9     0.00  -3.54962   1 ;    H10-    CA-     C-     O
   113    112    115    116      9   180.00   0.91161   2 ;    H10-    CA-     C-     O
   113    112    115    116      9   180.00  -1.52348   3 ;    H10-    CA-     C-     O
   113    112    115    117      9   180.00   0.91161   2 ;    H10-    CA-     C-     N
   114    112    115    116      9     0.00  -3.54962   1 ;    H11-    CA-     C-     O
   114    112    115    116      9   180.00   0.91161   2 ;    H11-    CA-     C-     O
   114    112    115    116      9   180.00  -1.52348   3 ;    H11-    CA-     C-     O
   114    112    115    117      9   180.00   0.91161   2 ;    H11-    CA-     C-     N
   115    117    118    119      9   180.00  -1.43327   2 ;      C-     N-    C1-    H1
   115    117    118    120      9     0.00   0.71128   3 ;      C-     N-    C1-    C2
   115    117    118    120      9   180.00   0.41840   4 ;      C-     N-    C1-    C2
   115    117    118    120      9   180.00   4.26768   1 ;      C-     N-    C1-    C2
   115    117    118    124      9     0.00   2.48304   2 ;      C-     N-    C1-    C3
   115    117    135    136      9   180.00  -1.43327   2 ;      C-     N-    CA-   H10
   115    117    135    137      9   180.00  -1.43327   2 ;      C-     N-    CA-   H11
   115    117    135    138      9     0.00   4.17814   1 ;      C-     N-    CA-     C
   115    117    135    138      9   180.00  -0.71454   2 ;      C-     N-    CA-     C
   116    115    117    118      9   180.00  16.86851   2 ;      O-     C-     N-    C1
   116    115    117    135      9   180.00  16.86851   2 ;      O-     C-     N-    CA
   117    118    120    121      9     0.00   0.68090   3 ;      N-    C1-    C2-    H2
   117    118    120    122      9     0.00   0.68090   3 ;      N-    C1-    C2-    H3
   117    118    120    123      9     0.00   0.68090   3 ;      N-    C1-    C2-    H4
   117    118    124    125      9     0.00  -1.25491   2 ;      N-    C1-    C3-    C4
   117    118    124    133      9     0.00  -1.25491   2 ;      N-    C1-    C3-    C8
   117    135    138    139      9   180.00   0.91161   2 ;      N-    CA-     C-     O
   117    135    138    140      9   180.00   6.88318   2 ;      N-    CA-     C-     N
   117    135    138    140      9   180.00  -1.08550   1 ;      N-    CA-     C-     N
   118    117    135    136      9     0.00   2.48304   2 ;     C1-     N-    CA-   H10
   118    117    135    137      9     0.00   2.48304   2 ;     C1-     N-    CA-   H11
   118    117    135    138      9     0.00   2.48304   2 ;     C1-     N-    CA-     C
   118    124    125    126      9   180.00  13.73867   2 ;     C1-    C3-    C4-    H5
   118    124    125    127      9   180.00  13.73867   2 ;     C1-    C3-    C4-    C5
   118    124    133    131      9   180.00  13.73867   2 ;     C1-    C3-    C8-    C7
   118    124    133    134      9   180.00  13.73867   2 ;     C1-    C3-    C8-    H9
   119    118    117    135      9     0.00   2.48304   2 ;     H1-    C1-     N-    CA
   119    118    120    121      9     0.00   0.68090   3 ;     H1-    C1-    C2-    H2
   119    118    120    122      9     0.00   0.68090   3 ;     H1-    C1-    C2-    H3
   119    118    120    123      9     0.00   0.68090   3 ;     H1-    C1-    C2-    H4
   119    118    124    125      9     0.00  -1.25491   2 ;     H1-    C1-    C3-    C4
   119    118    124    133      9     0.00  -1.25491   2 ;     H1-    C1-    C3-    C8
   120    118    117    135      9     0.00   2.48304   2 ;     C2-    C1-     N-    CA
   120    118    124    125      9   180.00  -0.20401   2 ;     C2-    C1-    C3-    C4
   120    118    124    133      9   180.00  -0.20401   2 ;     C2-    C1-    C3-    C8
   121    120    118    124      9     0.00   0.68090   3 ;     H2-    C2-    C1-    C3
   122    120    118    124      9     0.00   0.68090   3 ;     H3-    C2-    C1-    C3
   123    120    118    124      9     0.00   0.68090   3 ;     H4-    C2-    C1-    C3
   124    118    117    135      9     0.00   2.48304   2 ;     C3-    C1-     N-    CA
   124    125    127    128      9   180.00  13.73867   2 ;     C3-    C4-    C5-    H6
   124    125    127    129      9   180.00  13.73867   2 ;     C3-    C4-    C5-    C6
   124    133    131    129      9   180.00  13.73867   2 ;     C3-    C8-    C7-    C6
   124    133    131    132      9   180.00  13.73867   2 ;     C3-    C8-    C7-    H8
   125    124    133    131      9   180.00  13.73867   2 ;     C4-    C3-    C8-    C7
   125    124    133    134      9   180.00  13.73867   2 ;     C4-    C3-    C8-    H9
   125    127    129    130      9   180.00  13.73867   2 ;     C4-    C5-    C6-    H7
   125    127    129    131      9   180.00  13.73867   2 ;     C4-    C5-    C6-    C7
   126    125    124    133      9   180.00  13.73867   2 ;     H5-    C4-    C3-    C8
   126    125    127    128      9   180.00  13.73867   2 ;     H5-    C4-    C5-    H6
   126    125    127    129      9   180.00  13.73867   2 ;     H5-    C4-    C5-    C6
   127    125    124    133      9   180.00  13.73867   2 ;     C5-    C4-    C3-    C8
   127    129    131    132      9   180.00  13.73867   2 ;     C5-    C6-    C7-    H8
   127    129    131    133      9   180.00  13.73867   2 ;     C5-    C6-    C7-    C8
   128    127    129    130      9   180.00  13.73867   2 ;     H6-    C5-    C6-    H7
   128    127    129    131      9   180.00  13.73867   2 ;     H6-    C5-    C6-    C7
   129    131    133    134      9   180.00  13.73867   2 ;     C6-    C7-    C8-    H9
   130    129    131    132      9   180.00  13.73867   2 ;     H7-    C6-    C7-    H8
   130    129    131    133      9   180.00  13.73867   2 ;     H7-    C6-    C7-    C8
   132    131    133    134      9   180.00  13.73867   2 ;     H8-    C7-    C8-    H9
   135    138    140    141      9     0.00   6.02458   1 ;     CA-     C-     N-    C1
   135    138    140    141      9   180.00  10.82505   2 ;     CA-     C-     N-    C1
   135    138    140    158      9     0.00   6.02458   1 ;     CA-     C-     N-    CA
   135    138    140    158      9   180.00  10.82505   2 ;     CA-     C-     N-    CA
   136    135    138    139      9     0.00  -3.54962   1 ;    H10-    CA-     C-     O
   136    135    138    139      9   180.00   0.91161   2 ;    H10-    CA-     C-     O
   136    135    138    139      9   180.00  -1.52348   3 ;    H10-    CA-     C-     O
   136    135    138    140      9   180.00   0.91161   2 ;    H10-    CA-     C-     N
   137    135    138    139      9     0.00  -3.54962   1 ;    H11-    CA-     C-     O
   137    135    138    139      9   180.00   0.91161   2 ;    H11-    CA-     C-     O
   137    135    138    139      9   180.00  -1.52348   3 ;    H11-    CA-     C-     O
   137    135    138    140      9   180.00   0.91161   2 ;    H11-    CA-     C-     N
   138    140    141    142      9   180.00  -1.43327   2 ;      C-     N-    C1-    H1
   138    140    141    143      9     0.00   0.71128   3 ;      C-     N-    C1-    C2
   138    140    141    143      9   180.00   0.41840   4 ;      C-     N-    C1-    C2
   138    140    141    143      9   180.00   4.26768   1 ;      C-     N-    C1-    C2
   138    140    141    147      9     0.00   2.48304   2 ;      C-     N-    C1-    C3
   138    140    158    159      9   180.00  -1.43327   2 ;      C-     N-    CA-   H10
   138    140    158    160      9   180.00  -1.43327   2 ;      C-     N-    CA-   H11
   138    140    158    161      9     0.00   4.17814   1 ;      C-     N-    CA-     C
   138    140    158    161      9   180.00  -0.71454   2 ;      C-     N-    CA-     C
   139    138    140    141      9   180.00  16.86851   2 ;      O-     C-     N-    C1
   139    138    140    158      9   180.00  16.86851   2 ;      O-     C-     N-    CA
   140    141    143    144      9     0.00   0.68090   3 ;      N-    C1-    C2-    H2
   140    141    143    145      9     0.00   0.68090   3 ;      N-    C1-    C2-    H3
   140    141    143    146      9     0.00   0.68090   3 ;      N-    C1-    C2-    H4
   140    141    147    148      9     0.00  -1.25491   2 ;      N-    C1-    C3-    C4
   140    141    147    156      9     0.00  -1.25491   2 ;      N-    C1-    C3-    C8
   140    158    161    162      9   180.00   0.91161   2 ;      N-    CA-     C-     O
   140    158    161    163      9   180.00   6.88318   2 ;      N-    CA-     C-     N
   140    158    161    163      9   180.00  -1.08550   1 ;      N-    CA-     C-     N
   141    140    158    159      9     0.00   2.48304   2 ;     C1-     N-    CA-   H10
   141    140    158    160      9     0.00   2.48304   2 ;     C1-     N-    CA-   H11
   141    140    158    161      9     0.00   2.48304   2 ;     C1-     N-    CA-     C
   141    147    148    149      9   180.00  13.73867   2 ;     C1-    C3-    C4-    H5
   141    147    148    150      9   180.00  13.73867   2 ;     C1-    C3-    C4-    C5
   141    147    156    154      9   180.00  13.73867   2 ;     C1-    C3-    C8-    C7
   141    147    156    157      9   180.00  13.73867   2 ;     C1-    C3-    C8-    H9
   142    141    140    158      9     0.00   2.48304   2 ;     H1-    C1-     N-    CA
   142    141    143    144      9     0.00   0.68090   3 ;     H1-    C1-    C2-    H2
   142    141    143    145      9     0.00   0.68090   3 ;     H1-    C1-    C2-    H3
   142    141    143    146      9     0.00   0.68090   3 ;     H1-    C1-    C2-    H4
   142    141    147    148      9     0.00  -1.25491   2 ;     H1-    C1-    C3-    C4
   142    141    147    156      9     0.00  -1.25491   2 ;     H1-    C1-    C3-    C8
   143    141    140    158      9     0.00   2.48304   2 ;     C2-    C1-     N-    CA
   143    141    147    148      9   180.00  -0.20401   2 ;     C2-    C1-    C3-    C4
   143    141    147    156      9   180.00  -0.20401   2 ;     C2-    C1-    C3-    C8
   144    143    141    147      9     0.00   0.68090   3 ;     H2-    C2-    C1-    C3
   145    143    141    147      9     0.00   0.68090   3 ;     H3-    C2-    C1-    C3
   146    143    141    147      9     0.00   0.68090   3 ;     H4-    C2-    C1-    C3
   147    141    140    158      9     0.00   2.48304   2 ;     C3-    C1-     N-    CA
   147    148    150    151      9   180.00  13.73867   2 ;     C3-    C4-    C5-    H6
   147    148    150    152      9   180.00  13.73867   2 ;     C3-    C4-    C5-    C6
   147    156    154    152      9   180.00  13.73867   2 ;     C3-    C8-    C7-    C6
   147    156    154    155      9   180.00  13.73867   2 ;     C3-    C8-    C7-    H8
   148    147    156    154      9   180.00  13.73867   2 ;     C4-    C3-    C8-    C7
   148    147    156    157      9   180.00  13.73867   2 ;     C4-    C3-    C8-    H9
   148    150    152    153      9   180.00  13.73867   2 ;     C4-    C5-    C6-    H7
   148    150    152    154      9   180.00  13.73867   2 ;     C4-    C5-    C6-    C7
   149    148    147    156      9   180.00  13.73867   2 ;     H5-    C4-    C3-    C8
   149    148    150    151      9   180.00  13.73867   2 ;     H5-    C4-    C5-    H6
   149    148    150    152      9   180.00  13.73867   2 ;     H5-    C4-    C5-    C6
   150    148    147    156      9   180.00  13.73867   2 ;     C5-    C4-    C3-    C8
   150    152    154    155      9   180.00  13.73867   2 ;     C5-    C6-    C7-    H8
   150    152    154    156      9   180.00  13.73867   2 ;     C5-    C6-    C7-    C8
   151    150    152    153      9   180.00  13.73867   2 ;     H6-    C5-    C6-    H7
   151    150    152    154      9   180.00  13.73867   2 ;     H6-    C5-    C6-    C7
   152    154    156    157      9   180.00  13.73867   2 ;     C6-    C7-    C8-    H9
   153    152    154    155      9   180.00  13.73867   2 ;     H7-    C6-    C7-    H8
   153    152    154    156      9   180.00  13.73867   2 ;     H7-    C6-    C7-    C8
   155    154    156    157      9   180.00  13.73867   2 ;     H8-    C7-    C8-    H9
   158    161    163    164      9   180.00  16.86851   2 ;     CA-     C-     N-    H1
   158    161    163    165      9   180.00  16.86851   2 ;     CA-     C-     N-    H2
   159    158    161    162      9     0.00  -3.54962   1 ;    H10-    CA-     C-     O
   159    158    161    162      9   180.00   0.91161   2 ;    H10-    CA-     C-     O
   159    158    161    162      9   180.00  -1.52348   3 ;    H10-    CA-     C-     O
   159    158    161    163      9   180.00   0.91161   2 ;    H10-    CA-     C-     N
   160    158    161    162      9     0.00  -3.54962   1 ;    H11-    CA-     C-     O
   160    158    161    162      9   180.00   0.91161   2 ;    H11-    CA-     C-     O
   160    158    161    162      9   180.00  -1.52348   3 ;    H11-    CA-     C-     O
   160    158    161    163      9   180.00   0.91161   2 ;    H11-    CA-     C-     N
   162    161    163    164      9     0.00  54.57442   1 ;      O-     C-     N-    H1
   162    161    163    164      9   180.00   6.65043   2 ;      O-     C-     N-    H1
   162    161    163    165      9     0.00  54.57442   1 ;      O-     C-     N-    H2
   162    161    163    165      9   180.00   6.65043   2 ;      O-     C-     N-    H2

[ dihedrals ] ; impropers
; treated as propers in GROMACS to use correct AMBER analytical function
;    i      j      k      l   func   phase     kd      pn
     1      3      2     20      4   180.00   4.60240   2 ;      H-    C1-     N-    CA
     9     12     10     11      4   180.00   4.60240   2 ;     C3-    C5-    C4-    H5
     9     16     18     19      4   180.00   4.60240   2 ;     C3-    C7-    C8-    H9
    10     14     12     13      4   180.00   4.60240   2 ;     C4-    C6-    C5-    H6
    10     18      9      3      4   180.00   4.60240   2 ;     C4-    C8-    C3-    C1
    12     16     14     15      4   180.00   4.60240   2 ;     C5-    C7-    C6-    H7
    14     18     16     17      4   180.00   4.60240   2 ;     C6-    C8-    C7-    H8
    20     25     23     24      4   180.00  43.93200   2 ;     CA-     N-     C-     O
    23     26     25     43      4   180.00   4.60240   2 ;      C-    C1-     N-    CA
    26     33     32     41      4   180.00   4.60240   2 ;     C1-    C4-    C3-    C8
    32     35     33     34      4   180.00   4.60240   2 ;     C3-    C5-    C4-    H5
    32     39     41     42      4   180.00   4.60240   2 ;     C3-    C7-    C8-    H9
    33     37     35     36      4   180.00   4.60240   2 ;     C4-    C6-    C5-    H6
    35     39     37     38      4   180.00   4.60240   2 ;     C5-    C7-    C6-    H7
    37     41     39     40      4   180.00   4.60240   2 ;     C6-    C8-    C7-    H8
    43     48     46     47      4   180.00  43.93200   2 ;     CA-     N-     C-     O
    46     49     48     66      4   180.00   4.60240   2 ;      C-    C1-     N-    CA
    49     56     55     64      4   180.00   4.60240   2 ;     C1-    C4-    C3-    C8
    55     58     56     57      4   180.00   4.60240   2 ;     C3-    C5-    C4-    H5
    55     62     64     65      4   180.00   4.60240   2 ;     C3-    C7-    C8-    H9
    56     60     58     59      4   180.00   4.60240   2 ;     C4-    C6-    C5-    H6
    58     62     60     61      4   180.00   4.60240   2 ;     C5-    C7-    C6-    H7
    60     64     62     63      4   180.00   4.60240   2 ;     C6-    C8-    C7-    H8
    66     71     69     70      4   180.00  43.93200   2 ;     CA-     N-     C-     O
    69     72     71     89      4   180.00   4.60240   2 ;      C-    C1-     N-    CA
    72     79     78     87      4   180.00   4.60240   2 ;     C1-    C4-    C3-    C8
    78     81     79     80      4   180.00   4.60240   2 ;     C3-    C5-    C4-    H5
    78     85     87     88      4   180.00   4.60240   2 ;     C3-    C7-    C8-    H9
    79     83     81     82      4   180.00   4.60240   2 ;     C4-    C6-    C5-    H6
    81     85     83     84      4   180.00   4.60240   2 ;     C5-    C7-    C6-    H7
    83     87     85     86      4   180.00   4.60240   2 ;     C6-    C8-    C7-    H8
    89     94     92     93      4   180.00  43.93200   2 ;     CA-     N-     C-     O
    92     95     94    112      4   180.00   4.60240   2 ;      C-    C1-     N-    CA
    95    102    101    110      4   180.00   4.60240   2 ;     C1-    C4-    C3-    C8
   101    104    102    103      4   180.00   4.60240   2 ;     C3-    C5-    C4-    H5
   101    108    110    111      4   180.00   4.60240   2 ;     C3-    C7-    C8-    H9
   102    106    104    105      4   180.00   4.60240   2 ;     C4-    C6-    C5-    H6
   104    108    106    107      4   180.00   4.60240   2 ;     C5-    C7-    C6-    H7
   106    110    108    109      4   180.00   4.60240   2 ;     C6-    C8-    C7-    H8
   112    117    115    116      4   180.00  43.93200   2 ;     CA-     N-     C-     O
   115    118    117    135      4   180.00   4.60240   2 ;      C-    C1-     N-    CA
   118    125    124    133      4   180.00   4.60240   2 ;     C1-    C4-    C3-    C8
   124    127    125    126      4   180.00   4.60240   2 ;     C3-    C5-    C4-    H5
   124    131    133    134      4   180.00   4.60240   2 ;     C3-    C7-    C8-    H9
   125    129    127    128      4   180.00   4.60240   2 ;     C4-    C6-    C5-    H6
   127    131    129    130      4   180.00   4.60240   2 ;     C5-    C7-    C6-    H7
   129    133    131    132      4   180.00   4.60240   2 ;     C6-    C8-    C7-    H8
   135    140    138    139      4   180.00  43.93200   2 ;     CA-     N-     C-     O
   138    141    140    158      4   180.00   4.60240   2 ;      C-    C1-     N-    CA
   141    148    147    156      4   180.00   4.60240   2 ;     C1-    C4-    C3-    C8
   147    150    148    149      4   180.00   4.60240   2 ;     C3-    C5-    C4-    H5
   147    154    156    157      4   180.00   4.60240   2 ;     C3-    C7-    C8-    H9
   148    152    150    151      4   180.00   4.60240   2 ;     C4-    C6-    C5-    H6
   150    154    152    153      4   180.00   4.60240   2 ;     C5-    C7-    C6-    H7
   152    156    154    155      4   180.00   4.60240   2 ;     C6-    C8-    C7-    H8
   158    163    161    162      4   180.00  43.93200   2 ;     CA-     N-     C-     O
   161    164    163    165      4   180.00   4.60240   2 ;      C-    H1-     N-    H2

;[ system ]
; nspe_7_1

;[ molecules ]
; Compound        nmols
; nspe_7_1         1     
