nspe_7_1_GMX.gro created by acpype (v: 2023.10.27) on Tue Apr  8 12:38:59 2025
 166
    1  H02    N    1   0.154   0.144  -0.000
    1  H02   C1    2   0.114   0.227  -0.118
    1  H02   C2    3  -0.038   0.234  -0.130
    1  H02   C3    4   0.175   0.365  -0.107
    1  H02   C4    5   0.263   0.411  -0.206
    1  H02   C5    6   0.317   0.539  -0.198
    1  H02   C6    7   0.286   0.622  -0.091
    1  H02   C7    8   0.200   0.577   0.009
    1  H02   C8    9   0.145   0.450   0.001
    1  H02   CA   10   0.109   0.000   0.000
    1  H02    C   11   0.158  -0.072   0.125
    1  H02    O   12   0.226  -0.008   0.206
    1  H02   H1   13   0.123   0.186   0.088
    1  H02   H2   14   0.256   0.144   0.010
    1  H02   H3   15   0.155   0.175  -0.205
    1  H02   H4   16  -0.085   0.272  -0.039
    1  H02   H5   17  -0.081   0.135  -0.151
    1  H02   H6   18  -0.067   0.299  -0.213
    1  H02   H7   19   0.289   0.350  -0.292
    1  H02   H8   20   0.384   0.576  -0.276
    1  H02   H9   21   0.328   0.723  -0.085
    1  H02  H10   22   0.175   0.643   0.092
    1  H02  H11   23   0.076   0.419   0.080
    1  H02  H12   24   0.151  -0.047  -0.090
    1  H02  H13   25   0.000   0.000   0.000
    2  R02    N   26   0.120  -0.204   0.136
    2  R02   C1   27   0.039  -0.266   0.032
    2  R02   H1   28   0.082  -0.238  -0.065
    2  R02   C2   29   0.040  -0.419   0.038
    2  R02   H2   30  -0.016  -0.457   0.123
    2  R02   H3   31   0.143  -0.455   0.043
    2  R02   H4   32  -0.006  -0.458  -0.052
    2  R02   C3   33  -0.105  -0.218   0.037
    2  R02   C4   34  -0.165  -0.182   0.157
    2  R02   H5   35  -0.107  -0.184   0.249
    2  R02   C5   36  -0.297  -0.142   0.161
    2  R02   H6   37  -0.342  -0.114   0.254
    2  R02   C6   38  -0.372  -0.139   0.044
    2  R02   H7   39  -0.475  -0.108   0.047
    2  R02   C7   40  -0.313  -0.175  -0.076
    2  R02   H8   41  -0.371  -0.172  -0.167
    2  R02   C8   42  -0.181  -0.215  -0.079
    2  R02   H9   43  -0.135  -0.242  -0.173
    2  R02   CA   44   0.159  -0.284   0.250
    2  R02  H10   45   0.085  -0.360   0.272
    2  R02  H11   46   0.167  -0.215   0.335
    2  R02    C   47   0.296  -0.349   0.225
    2  R02    O   48   0.336  -0.369   0.111
    3  R02    N   49   0.367  -0.382   0.338
    3  R02   C1   50   0.313  -0.356   0.470
    3  R02   H1   51   0.208  -0.388   0.470
    3  R02   C2   52   0.383  -0.434   0.581
    3  R02   H2   53   0.484  -0.396   0.600
    3  R02   H3   54   0.388  -0.539   0.555
    3  R02   H4   55   0.326  -0.423   0.673
    3  R02   C3   56   0.318  -0.208   0.504
    3  R02   C4   57   0.418  -0.125   0.453
    3  R02   H5   58   0.492  -0.166   0.386
    3  R02   C5   59   0.423   0.008   0.488
    3  R02   H6   60   0.501   0.071   0.448
    3  R02   C6   61   0.328   0.062   0.574
    3  R02   H7   62   0.332   0.166   0.601
    3  R02   C7   63   0.228  -0.020   0.625
    3  R02   H8   64   0.153   0.021   0.691
    3  R02   C8   65   0.223  -0.153   0.590
    3  R02   H9   66   0.144  -0.216   0.629
    3  R02   CA   67   0.497  -0.444   0.327
    3  R02  H10   68   0.560  -0.418   0.412
    3  R02  H11   69   0.542  -0.407   0.235
    3  R02    C   70   0.483  -0.597   0.320
    3  R02    O   71   0.385  -0.654   0.364
    4  R02    N   72   0.588  -0.663   0.259
    4  R02   C1   73   0.587  -0.808   0.245
    4  R02   H1   74   0.487  -0.836   0.209
    4  R02   C2   75   0.687  -0.859   0.143
    4  R02   H2   76   0.790  -0.851   0.178
    4  R02   H3   77   0.676  -0.805   0.049
    4  R02   H4   78   0.668  -0.965   0.124
    4  R02   C3   79   0.612  -0.877   0.378
    4  R02   C4   80   0.692  -0.818   0.476
    4  R02   H5   81   0.734  -0.720   0.459
    4  R02   C5   82   0.717  -0.885   0.594
    4  R02   H6   83   0.779  -0.838   0.670
    4  R02   C6   84   0.663  -1.010   0.617
    4  R02   H7   85   0.683  -1.062   0.710
    4  R02   C7   86   0.583  -1.069   0.521
    4  R02   H8   87   0.540  -1.166   0.538
    4  R02   C8   88   0.558  -1.002   0.402
    4  R02   H9   89   0.495  -1.048   0.327
    4  R02   CA   90   0.702  -0.589   0.208
    4  R02  H10   91   0.792  -0.650   0.213
    4  R02  H11   92   0.713  -0.501   0.272
    4  R02    C   93   0.676  -0.545   0.064
    4  R02    O   94   0.597  -0.605  -0.008
    5  R02    N   95   0.748  -0.435   0.022
    5  R02   C1   96   0.733  -0.384  -0.113
    5  R02   H1   97   0.626  -0.379  -0.135
    5  R02   C2   98   0.787  -0.241  -0.129
    5  R02   H2   99   0.896  -0.239  -0.126
    5  R02   H3  100   0.746  -0.177  -0.052
    5  R02   H4  101   0.756  -0.203  -0.226
    5  R02   C3  102   0.801  -0.473  -0.215
    5  R02   C4  103   0.914  -0.547  -0.183
    5  R02   H5  104   0.953  -0.545  -0.082
    5  R02   C5  105   0.976  -0.626  -0.279
    5  R02   H6  106   1.063  -0.683  -0.252
    5  R02   C6  107   0.926  -0.631  -0.408
    5  R02   H7  108   0.974  -0.692  -0.482
    5  R02   C7  109   0.813  -0.558  -0.440
    5  R02   H8  110   0.773  -0.561  -0.541
    5  R02   C8  111   0.751  -0.479  -0.345
    5  R02   H9  112   0.663  -0.423  -0.370
    5  R02   CA  113   0.841  -0.369   0.112
    5  R02  H10  114   0.923  -0.324   0.057
    5  R02  H11  115   0.879  -0.446   0.179
    5  R02    C  116   0.768  -0.262   0.193
    5  R02    O  117   0.665  -0.211   0.153
    6  R02    N  118   0.827  -0.229   0.314
    6  R02   C1  119   0.949  -0.295   0.356
    6  R02   H1  120   1.018  -0.296   0.271
    6  R02   C2  121   1.022  -0.220   0.468
    6  R02   H2  122   0.969  -0.228   0.563
    6  R02   H3  123   1.034  -0.115   0.441
    6  R02   H4  124   1.120  -0.264   0.482
    6  R02   C3  125   0.924  -0.437   0.401
    6  R02   C4  126   0.804  -0.474   0.459
    6  R02   H5  127   0.724  -0.402   0.470
    6  R02   C5  128   0.784  -0.604   0.503
    6  R02   H6  129   0.690  -0.632   0.548
    6  R02   C6  130   0.884  -0.699   0.489
    6  R02   H7  131   0.869  -0.800   0.523
    6  R02   C7  132   1.005  -0.662   0.431
    6  R02   H8  133   1.084  -0.735   0.420
    6  R02   C8  134   1.024  -0.533   0.387
    6  R02   H9  135   1.118  -0.505   0.342
    6  R02   CA  136   0.768  -0.129   0.400
    6  R02  H10  137   0.790  -0.150   0.505
    6  R02  H11  138   0.660  -0.134   0.384
    6  R02    C  139   0.819   0.010   0.363
    6  R02    O  140   0.926   0.025   0.306
    7  R02    N  141   0.737   0.115   0.399
    7  R02   C1  142   0.593   0.097   0.405
    7  R02   H1  143   0.573   0.003   0.458
    7  R02   C2  144   0.521   0.207   0.484
    7  R02   H2  145   0.521   0.302   0.429
    7  R02   H3  146   0.569   0.220   0.580
    7  R02   H4  147   0.418   0.177   0.500
    7  R02   C3  148   0.532   0.089   0.266
    7  R02   C4  149   0.587   0.157   0.158
    7  R02   H5  150   0.678   0.214   0.172
    7  R02   C5  151   0.528   0.151   0.034
    7  R02   H6  152   0.572   0.204  -0.049
    7  R02   C6  153   0.412   0.077   0.015
    7  R02   H7  154   0.366   0.073  -0.083
    7  R02   C7  155   0.356   0.009   0.122
    7  R02   H8  156   0.266  -0.049   0.108
    7  R02   C8  157   0.416   0.015   0.246
    7  R02   H9  158   0.372  -0.039   0.330
    7  R02   CA  159   0.792   0.245   0.431
    7  R02  H10  160   0.722   0.324   0.406
    7  R02  H11  161   0.883   0.256   0.371
    7  R02    C  162   0.828   0.252   0.580
    7  R02    O  163   0.773   0.180   0.661
    8  NH2    N  164   0.925   0.344   0.613
    8  NH2   H1  165   0.965   0.400   0.537
    8  NH2   H2  166   0.951   0.352   0.711
   31.91325    37.77674    25.03124
