nspe_7_2 in water
 2107
    1H02      N    1   0.928   0.593   3.408  0.2956 -0.3778 -0.3782
    1H02     C1    2   0.850   0.705   3.470  0.1106 -0.3348 -0.1636
    1H02     C2    3   0.895   0.838   3.408  0.4790  0.0781 -0.3506
    1H02     C3    4   0.700   0.681   3.455  0.4726  0.1837  0.2067
    1H02     C4    5   0.646   0.658   3.328 -0.2789 -0.0067  0.2649
    1H02     C5    6   0.506   0.622   3.313  0.1206 -0.5769 -0.7089
    1H02     C6    7   0.425   0.610   3.428  0.1451 -0.0666  0.0254
    1H02     C7    8   0.475   0.633   3.554 -0.3073 -0.0079  0.8699
    1H02     C8    9   0.611   0.665   3.569  0.1436  0.0648 -0.1075
    1H02     CA   10   0.966   0.488   3.507 -0.1829  0.2242  0.4291
    1H02      C   11   0.991   0.357   3.435 -0.4686  0.6732 -1.1345
    1H02      O   12   0.946   0.345   3.324  0.3426 -0.2902  0.2779
    1H02     H1   13   1.010   0.644   3.377 -0.5698  0.1235 -1.9556
    1H02     H2   14   0.884   0.554   3.326 -0.1411 -1.3290  0.2966
    1H02     H3   15   0.862   0.713   3.579 -2.1979  0.0309  0.1017
    1H02     H4   16   0.827   0.918   3.438 -1.4332 -0.9538 -1.7131
    1H02     H5   17   0.886   0.843   3.299 -0.4808 -1.7648 -0.3897
    1H02     H6   18   0.998   0.862   3.437 -0.1410  2.3520  0.1464
    1H02     H7   19   0.710   0.666   3.241  1.7906  2.1457  1.8590
    1H02     H8   20   0.468   0.601   3.213  0.6949 -1.2893 -0.7861
    1H02     H9   21   0.319   0.587   3.423 -0.0871  0.7834  0.8478
    1H02    H10   22   0.416   0.627   3.646  0.5235 -0.9276  1.3551
    1H02    H11   23   0.652   0.681   3.668  2.4056 -0.8195 -0.8243
    1H02    H12   24   0.890   0.472   3.585  1.0336 -3.1862  1.0969
    1H02    H13   25   1.064   0.517   3.546 -0.7672  0.8356  1.4863
    2R02      N   26   1.050   0.251   3.506 -0.3647 -0.2909  0.4501
    2R02     C1   27   1.101   0.261   3.638 -0.3784 -0.5743 -0.4589
    2R02     H1   28   1.123   0.367   3.657 -2.8920  0.2061 -1.5431
    2R02     C2   29   0.986   0.222   3.736  0.3059 -0.0871 -0.3186
    2R02     H2   30   0.963   0.115   3.739  0.4834 -0.1499  3.6153
    2R02     H3   31   0.891   0.275   3.719 -1.2790 -2.8655 -0.7601
    2R02     H4   32   1.022   0.251   3.835 -0.1386 -0.7776  0.0456
    2R02     C3   33   1.228   0.184   3.664  0.4401  0.0504 -0.0538
    2R02     C4   34   1.240   0.080   3.767  0.2231  0.3638 -0.3335
    2R02     H5   35   1.162   0.057   3.840  0.0680  1.7849 -0.0139
    2R02     C5   36   1.356   0.001   3.761 -0.1451  1.0234 -0.0568
    2R02     H6   37   1.354  -0.080   3.833  2.9332 -0.8895 -1.9312
    2R02     C6   38   1.461   0.017   3.676 -0.2880  0.2395  0.0957
    2R02     H7   39   1.541  -0.056   3.671  1.8676  2.4846  0.0776
    2R02     C7   40   1.455   0.124   3.577  0.4794 -0.4822 -0.5131
    2R02     H8   41   1.529   0.145   3.500  0.9189  1.9230  0.4768
    2R02     C8   42   1.337   0.206   3.581 -0.4033  0.6794  0.0781
    2R02     H9   43   1.328   0.270   3.493  0.3838  0.1969 -0.3648
    2R02     CA   44   1.018   0.110   3.456 -0.4642 -0.1361  0.0016
    2R02    H10   45   1.042   0.043   3.540  0.4206  1.9188  1.4595
    2R02    H11   46   1.080   0.083   3.370  0.1280  2.2642 -0.3764
    2R02      C   47   0.870   0.093   3.424  0.7643 -0.6775  0.2011
    2R02      O   48   0.785   0.138   3.501  0.1532  0.0151  0.6971
    3R02      N   49   0.830   0.016   3.314 -0.1289 -0.5275 -0.5659
    3R02     C1   50   0.685   0.001   3.270 -1.0642 -0.2263  0.6013
    3R02     H1   51   0.622   0.027   3.356 -1.1416 -0.1255  0.5147
    3R02     C2   52   0.652   0.099   3.160  0.3425  0.1923  0.3021
    3R02     H2   53   0.685   0.194   3.205  0.8027  0.2220 -0.0898
    3R02     H3   54   0.547   0.109   3.130  0.7976  1.7953 -0.9128
    3R02     H4   55   0.712   0.077   3.071  2.1647  1.5558  1.1124
    3R02     C3   56   0.650  -0.145   3.258 -0.8109  0.5005  0.2464
    3R02     C4   57   0.612  -0.209   3.138  0.2584 -0.6464 -0.4186
    3R02     H5   58   0.597  -0.162   3.041 -0.9831 -1.6537 -0.7359
    3R02     C5   59   0.564  -0.337   3.144  0.0090 -0.7197  0.2279
    3R02     H6   60   0.527  -0.388   3.055  1.4576 -0.0653 -0.7775
    3R02     C6   61   0.564  -0.408   3.264 -0.1980 -0.2163 -0.0584
    3R02     H7   62   0.524  -0.508   3.275 -1.8462  0.3095 -0.9105
    3R02     C7   63   0.612  -0.351   3.383  0.2920  0.1105 -0.4721
    3R02     H8   64   0.611  -0.404   3.478 -0.5359  0.5205 -0.2469
    3R02     C8   65   0.656  -0.220   3.379  0.7387 -0.0457  0.0657
    3R02     H9   66   0.698  -0.180   3.471  1.6134 -2.4072  0.7542
    3R02     CA   67   0.920  -0.033   3.200  0.1002  0.2521 -1.3676
    3R02    H10   68   0.967   0.057   3.159 -1.8949  1.7815 -0.4850
    3R02    H11   69   0.858  -0.074   3.120 -0.0740  0.6527 -1.4410
    3R02      C   70   1.010  -0.144   3.239 -1.0159 -0.1874  0.0065
    3R02      O   71   1.027  -0.176   3.356  0.2236  0.4013  0.5123
    4R02      N   72   1.096  -0.187   3.142  0.2779 -0.5733  0.2472
    4R02     C1   73   1.203  -0.290   3.171  0.2979 -0.4015 -0.3629
    4R02     H1   74   1.164  -0.359   3.247  0.0373  0.6685  0.5115
    4R02     C2   75   1.245  -0.380   3.050  0.0869 -0.1407  0.1711
    4R02     H2   76   1.295  -0.314   2.977  0.3617  0.5227  0.9476
    4R02     H3   77   1.151  -0.419   3.008 -0.2223 -0.5561  1.2325
    4R02     H4   78   1.320  -0.453   3.082  0.4100 -0.8397 -1.9685
    4R02     C3   79   1.334  -0.228   3.231  0.8156  1.3775  0.7195
    4R02     C4   80   1.378  -0.097   3.200 -0.1159 -0.2032  0.4051
    4R02     H5   81   1.339  -0.039   3.117  1.8263  1.8389  0.7971
    4R02     C5   82   1.491  -0.050   3.265  0.3547 -0.0144 -0.1168
    4R02     H6   83   1.529   0.049   3.241  1.5741 -0.0039  1.7319
    4R02     C6   84   1.554  -0.125   3.363 -0.2774 -0.0134  0.1246
    4R02     H7   85   1.638  -0.086   3.420 -0.6086 -0.2710  0.8077
    4R02     C7   86   1.506  -0.251   3.399 -0.8972 -0.3398  0.1288
    4R02     H8   87   1.554  -0.320   3.468 -0.6708 -0.0373  0.2740
    4R02     C8   88   1.397  -0.301   3.328  0.7037  0.0137 -0.5208
    4R02     H9   89   1.358  -0.395   3.367 -0.3793  0.6836  0.0601
    4R02     CA   90   1.076  -0.154   2.997 -0.0065 -0.0733 -0.6555
    4R02    H10   91   1.152  -0.182   2.923  0.3635 -0.3922 -0.1606
    4R02    H11   92   1.073  -0.045   2.989  2.2479  0.0881 -0.0303
    4R02      C   93   0.951  -0.226   2.939  0.0565 -0.1678  0.3287
    4R02      O   94   0.878  -0.291   3.014 -0.4258  0.1912 -0.5516
    5R02      N   95   0.914  -0.202   2.803  0.4831  0.2405 -0.2971
    5R02     C1   96   0.788  -0.249   2.744 -0.3273  0.5573  0.2450
    5R02     H1   97   0.709  -0.244   2.820 -1.5685 -1.8733 -0.7866
    5R02     C2   98   0.744  -0.176   2.621  0.2728 -0.2525  0.3788
    5R02     H2   99   0.729  -0.069   2.634  0.9517 -0.2792  1.5006
    5R02     H3  100   0.639  -0.203   2.609  0.0855 -0.2404  1.8915
    5R02     H4  101   0.801  -0.202   2.530 -0.4413 -0.7740  0.0684
    5R02     C3  102   0.799  -0.397   2.709 -0.2595 -0.7147  1.1395
    5R02     C4  103   0.705  -0.486   2.754 -0.1214  0.5235 -0.0469
    5R02     H5  104   0.654  -0.458   2.846  0.9566 -2.4404  1.5895
    5R02     C5  105   0.703  -0.622   2.716 -0.9765  0.0165  0.0852
    5R02     H6  106   0.636  -0.696   2.760 -2.2480  0.6455 -0.7374
    5R02     C6  107   0.794  -0.664   2.616  0.0279 -0.1704 -0.3000
    5R02     H7  108   0.810  -0.770   2.600  1.3784 -0.5640  2.9062
    5R02     C7  109   0.895  -0.579   2.570 -0.3611 -0.1692 -0.1868
    5R02     H8  110   0.966  -0.612   2.495  1.9316  0.3594  1.6290
    5R02     C8  111   0.896  -0.444   2.615  0.0636 -0.2411  0.2720
    5R02     H9  112   0.966  -0.377   2.566 -0.8066  3.5383  3.6355
    5R02     CA  113   0.996  -0.106   2.725 -0.8158  0.4258  0.0985
    5R02    H10  114   0.984  -0.116   2.616 -2.4158  0.1318  0.2849
    5R02    H11  115   1.104  -0.123   2.736 -0.9874 -0.4310  0.5679
    5R02      C  116   0.966   0.037   2.762  0.1353 -0.1748  0.2778
    5R02      O  117   0.917   0.061   2.867  0.3086  0.6033 -0.0936
    6R02      N  118   1.027   0.134   2.689 -0.3240  0.0785 -0.1653
    6R02     C1  119   1.076   0.115   2.550 -0.0861 -0.9784 -0.1455
    6R02     H1  120   1.083   0.217   2.510  0.6481 -0.5686  0.9603
    6R02     C2  121   1.223   0.066   2.542  1.0876 -0.0190 -0.6107
    6R02     H2  122   1.254   0.062   2.437  2.1131  1.6804 -0.4159
    6R02     H3  123   1.228  -0.037   2.579  1.6166  0.4717  0.7550
    6R02     H4  124   1.293   0.130   2.598 -2.1813  2.9768  0.4087
    6R02     C3  125   0.979   0.052   2.453  0.5332 -0.4666  0.1278
    6R02     C4  126   0.855   0.108   2.434 -0.2663 -0.1635  0.0240
    6R02     H5  127   0.826   0.196   2.491  0.6725  0.0596  0.1737
    6R02     C5  128   0.760   0.053   2.344 -0.6004 -0.7106  0.7934
    6R02     H6  129   0.659   0.094   2.338 -0.2188  0.5059  1.9600
    6R02     C6  130   0.794  -0.058   2.266 -0.2994  0.0885  0.2543
    6R02     H7  131   0.720  -0.094   2.196  0.4346 -3.7360  1.1842
    6R02     C7  132   0.916  -0.127   2.276  0.2276 -0.3636 -0.2276
    6R02     H8  133   0.936  -0.216   2.218 -1.9595 -0.7299 -0.5174
    6R02     C8  134   1.000  -0.059   2.368  0.1425  0.5568 -0.7711
    6R02     H9  135   1.093  -0.104   2.402 -0.6261  0.4004  1.2595
    6R02     CA  136   1.068   0.258   2.764 -0.4621 -0.2551  0.7750
    6R02    H10  137   0.980   0.322   2.777 -1.8126 -1.1995 -2.6284
    6R02    H11  138   1.130   0.319   2.697 -0.3349 -1.5385 -0.3109
    6R02      C  139   1.168   0.244   2.886  0.2330  0.3894  0.1132
    6R02      O  140   1.230   0.140   2.901  0.1347  0.2602  0.5224
    7R02      N  141   1.174   0.351   2.969  0.0049  0.2168  0.0054
    7R02     C1  142   1.265   0.362   3.083 -0.4139 -0.4689 -0.6483
    7R02     H1  143   1.221   0.446   3.139 -0.1297 -0.1836 -0.8523
    7R02     C2  144   1.257   0.257   3.188 -0.5505  0.5268 -1.9956
    7R02     H2  145   1.326   0.172   3.178  1.3232  1.0205  3.5686
    7R02     H3  146   1.157   0.223   3.215 -0.7908  2.4039 -0.3179
    7R02     H4  147   1.303   0.301   3.277 -1.7670 -0.5695 -0.7907
    7R02     C3  148   1.408   0.398   3.035  0.6354 -0.2899 -0.8236
    7R02     C4  149   1.442   0.532   3.012  0.0940  0.3574  0.3331
    7R02     H5  150   1.374   0.609   3.048  0.9576  0.7161  1.2650
    7R02     C5  151   1.567   0.568   2.950 -0.1902 -0.0902 -0.2259
    7R02     H6  152   1.597   0.672   2.940  1.9648 -0.3466  2.3443
    7R02     C6  153   1.659   0.467   2.913 -0.5556 -0.6015 -0.0533
    7R02     H7  154   1.755   0.495   2.869  0.3961 -2.3059  0.8342
    7R02     C7  155   1.625   0.336   2.949  0.6804  0.0034  0.1589
    7R02     H8  156   1.685   0.248   2.924 -0.7002 -1.0066  0.3086
    7R02     C8  157   1.499   0.302   3.004 -0.0064  0.1508  0.3702
    7R02     H9  158   1.471   0.198   3.019 -1.5732  0.3045 -1.1617
    7R02     CA  159   1.093   0.470   2.948  0.0518  0.0506 -0.2921
    7R02    H10  160   1.068   0.501   2.845  1.1490  0.1608 -0.5325
    7R02    H11  161   1.154   0.559   2.964 -1.0013  0.5428  1.2580
    7R02      C  162   0.973   0.476   3.047 -0.3463  0.5168 -0.0226
    7R02      O  163   0.928   0.576   3.100 -0.3127  0.3366  0.2172
    8NH2      N  164   0.912   0.354   3.067 -0.2704 -0.1830  0.2123
    8NH2     H1  165   0.866   0.348   3.157  1.1988 -1.1311  0.9408
    8NH2     H2  166   0.940   0.274   3.012 -1.6933 -0.4836 -0.1177
    9CHL     CL  167   1.521   3.172   3.553  0.0882 -0.3478  0.0222
    9CHL      C  168   1.541   2.990   3.571 -0.5403 -0.3250  0.0294
    9CHL    CL1  169   1.717   2.944   3.549  0.0488 -0.6007 -0.4151
    9CHL    CL2  170   1.494   2.959   3.748 -0.1500 -0.1799 -0.2337
    9CHL      H  171   1.473   2.936   3.505 -1.2463  0.2025  0.3106
   10CHL     CL  172   2.413   1.629   2.670  0.2658 -0.0973 -0.0643
   10CHL      C  173   2.439   1.527   2.529 -0.4660  0.3438 -0.1889
   10CHL    CL1  174   2.436   1.629   2.378 -0.0335  0.0313 -0.4608
   10CHL    CL2  175   2.603   1.458   2.553 -0.5478 -0.1484 -0.3750
   10CHL      H  176   2.369   1.443   2.528  1.3478 -1.2412 -0.7144
   11CHL     CL  177   1.829   2.420   0.496  0.1909  0.2745  0.0258
   11CHL      C  178   1.863   2.480   0.661  0.4558 -0.7008  0.2098
   11CHL    CL1  179   1.741   2.418   0.773  0.0220  0.1898 -0.1559
   11CHL    CL2  180   2.022   2.414   0.705  0.1287 -0.2428  0.0022
   11CHL      H  181   1.864   2.589   0.668  1.9600 -0.6792 -0.0348
   12CHL     CL  182   3.418   3.620   3.707  0.0267 -0.5349 -0.6874
   12CHL      C  183   3.369   3.484   3.610 -0.0395 -0.2242 -0.4347
   12CHL    CL1  184   3.318   3.526   3.440 -0.3328 -0.2349  0.1488
   12CHL    CL2  185   3.503   3.373   3.609  0.0675  0.1125 -0.3683
   12CHL      H  186   3.287   3.429   3.658 -1.2296  1.6504 -0.2400
   13CHL     CL  187   0.768   1.144   2.689  0.1277  0.3397 -0.0785
   13CHL      C  188   0.897   1.058   2.588 -0.4640  0.6616  0.2476
   13CHL    CL1  189   0.849   1.006   2.427 -0.0638 -0.3123  0.1576
   13CHL    CL2  190   1.034   1.187   2.569  0.2012  0.3615 -0.3121
   13CHL      H  191   0.953   0.981   2.641 -0.1730  1.7739  1.6068
   14CHL     CL  192   2.223   2.302   3.682 -0.0071  0.0542 -0.0222
   14CHL      C  193   2.124   2.356   3.543  0.2410 -0.4712 -0.2756
   14CHL    CL1  194   1.945   2.352   3.581  0.3201  0.0365  0.1442
   14CHL    CL2  195   2.157   2.527   3.501 -0.0799  0.3253  0.6028
   14CHL      H  196   2.144   2.285   3.462 -2.5327 -0.7418 -0.8411
   15CHL     CL  197   1.782   1.861   1.170 -0.3761 -0.0062 -0.3889
   15CHL      C  198   1.686   1.909   1.024  0.3277  0.4953 -0.1351
   15CHL    CL1  199   1.807   1.950   0.893 -0.2967 -0.2302  0.5840
   15CHL    CL2  200   1.557   1.792   0.971  0.2500 -0.1151 -0.2027
   15CHL      H  201   1.633   2.000   1.057  3.7660  3.1293 -1.2672
   16CHL     CL  202   3.564   2.036   1.115 -0.0715  0.7052  0.0744
   16CHL      C  203   3.563   2.201   1.174 -0.0401 -0.8095  0.8265
   16CHL    CL1  204   3.737   2.271   1.187  0.2417 -0.5283 -0.5256
   16CHL    CL2  205   3.455   2.303   1.065 -0.2690 -0.0383  0.3695
   16CHL      H  206   3.517   2.200   1.273 -0.7166  0.9243  0.5682
   17CHL     CL  207   3.466   0.147   0.877  0.0632  0.3146  0.0694
   17CHL      C  208   3.463   0.247   0.719 -0.4095  0.0235  0.4409
   17CHL    CL1  209   3.299   0.307   0.659 -0.0769  0.1450 -0.1443
   17CHL    CL2  210   3.568   0.391   0.714 -0.3559 -0.1402  0.2731
   17CHL      H  211   3.496   0.183   0.636  1.4586 -0.0385  1.1746
   18CHL     CL  212   3.284   2.912   1.583 -0.3165  0.6340 -0.0667
   18CHL      C  213   3.332   2.747   1.511  0.4846  0.0650 -0.1055
   18CHL    CL1  214   3.487   2.760   1.427  0.0739 -0.3143  0.0688
   18CHL    CL2  215   3.352   2.631   1.648  0.0524  0.3540  0.4224
   18CHL      H  216   3.252   2.720   1.441  0.8257  2.6033 -1.6034
   19CHL     CL  217   3.218   0.997   1.442 -0.0729  0.1418 -0.1240
   19CHL      C  218   3.294   0.840   1.477  0.6952 -0.4545 -0.5046
   19CHL    CL1  219   3.208   0.702   1.398 -0.2792  0.1821  0.6719
   19CHL    CL2  220   3.459   0.845   1.427 -0.4487 -0.5778 -0.0682
   19CHL      H  221   3.294   0.823   1.585 -1.6953  0.1954 -0.3608
   20CHL     CL  222   1.975   1.176   0.443 -0.4157  0.4393 -0.7766
   20CHL      C  223   1.801   1.218   0.472 -0.1523 -0.5329 -0.0916
   20CHL    CL1  224   1.772   1.354   0.359 -0.1084 -0.0362 -0.2762
   20CHL    CL2  225   1.701   1.076   0.439 -0.0838  0.0631 -0.0746
   20CHL      H  226   1.783   1.248   0.576 -0.5728 -0.3412 -0.2189
   21CHL     CL  227   3.265   1.905   1.030 -0.0911 -0.1896 -0.1207
   21CHL      C  228   3.207   1.768   0.934 -0.1086 -0.4249  0.3014
   21CHL    CL1  229   3.290   1.627   0.998 -0.0825  0.2570 -0.3878
   21CHL    CL2  230   3.031   1.745   0.945  0.2810  0.0611 -0.1375
   21CHL      H  231   3.235   1.776   0.829 -1.6033 -0.6441 -0.1370
   22CHL     CL  232   2.837   2.175   2.141  0.1971 -0.3746  0.0917
   22CHL      C  233   2.932   2.020   2.133  0.2946 -0.2825 -0.6875
   22CHL    CL1  234   3.068   2.026   2.019  0.3188 -0.2506 -0.0119
   22CHL    CL2  235   2.983   1.970   2.295  0.0537 -0.3122 -0.3448
   22CHL      H  236   2.867   1.945   2.088  0.8544  0.1021 -2.1820
   23CHL     CL  237   1.248   1.337   2.945  0.0047  0.1154 -0.0141
   23CHL      C  238   1.402   1.413   2.877  0.1234 -0.5891  0.1405
   23CHL    CL1  239   1.501   1.290   2.784 -0.5124  0.0746 -0.3045
   23CHL    CL2  240   1.364   1.544   2.759  0.0329 -0.3575  0.5228
   23CHL      H  241   1.460   1.448   2.963  2.3608  0.0463 -1.5538
   24CHL     CL  242   2.231   1.375   2.302 -0.3017 -0.3541 -0.0242
   24CHL      C  243   2.170   1.428   2.149  0.2305 -0.0586  0.0093
   24CHL    CL1  244   2.288   1.392   2.028  0.1825 -0.1151  0.2259
   24CHL    CL2  245   2.016   1.345   2.120 -0.0666 -0.4603 -0.1727
   24CHL      H  246   2.156   1.536   2.155 -0.2896  0.0626 -2.3350
   25CHL     CL  247   0.451   2.453   0.035  0.1316  0.1328 -0.0129
   25CHL      C  248   0.563   2.534  -0.070  0.2024 -0.1744 -0.3415
   25CHL    CL1  249   0.538   2.466  -0.239  0.4012 -0.1498 -0.0729
   25CHL    CL2  250   0.536   2.705  -0.063 -0.6214 -0.2718  0.0562
   25CHL      H  251   0.665   2.514  -0.038  0.6730  2.0227 -0.2983
   26CHL     CL  252   3.082   2.393   2.886 -0.1484  0.0556  0.1489
   26CHL      C  253   3.147   2.241   2.818  0.0396  0.4642  0.1591
   26CHL    CL1  254   3.154   2.103   2.941  0.2069  0.0535  0.1153
   26CHL    CL2  255   3.027   2.174   2.692 -0.1237 -0.2639 -0.0025
   26CHL      H  256   3.246   2.258   2.773  0.2629 -1.3495 -0.0943
   27CHL     CL  257   1.296   0.401   0.162 -0.3907 -0.1407  0.0819
   27CHL      C  258   1.189   0.447   0.297  0.0977 -0.1096 -0.6622
   27CHL    CL1  259   1.279   0.479   0.449 -0.2139  0.4475 -0.2523
   27CHL    CL2  260   1.092   0.592   0.253 -0.0487 -0.0261 -0.1949
   27CHL      H  261   1.122   0.362   0.309  0.6828 -0.3347  1.4020
   28CHL     CL  262   0.563   2.287   0.989 -0.3595 -0.1298 -0.0104
   28CHL      C  263   0.647   2.210   1.139  0.1007 -0.2035  0.2948
   28CHL    CL1  264   0.603   2.041   1.150  0.3473  0.1302  0.4147
   28CHL    CL2  265   0.823   2.196   1.118  0.2478  0.0263  0.0420
   28CHL      H  266   0.612   2.262   1.228 -0.4369 -2.3540  1.4108
   29CHL     CL  267   2.110   2.168   0.418  0.0651 -0.2149 -0.5640
   29CHL      C  268   1.980   2.047   0.355  0.6662  0.0029  0.0861
   29CHL    CL1  269   1.895   2.116   0.212  0.2434  0.1303 -0.4448
   29CHL    CL2  270   2.047   1.893   0.299  0.1657 -0.2327  0.1122
   29CHL      H  271   1.908   2.027   0.434 -0.9411  0.2927 -1.2538
   30CHL     CL  272   1.081   1.894   2.221 -0.1473 -0.0978  0.0693
   30CHL      C  273   1.052   2.021   2.108 -0.1937 -0.4490 -0.0079
   30CHL    CL1  274   1.201   2.060   2.001  0.1737  0.0173  0.3106
   30CHL    CL2  275   0.918   1.979   2.005 -0.2168  0.3952  0.0137
   30CHL      H  276   1.031   2.107   2.173  2.1887  1.5559 -1.6564
   31CHL     CL  277   2.190   3.530   3.241 -0.3960  0.2216  0.1403
   31CHL      C  278   2.134   3.402   3.349 -0.0984 -0.0108  0.7016
   31CHL    CL1  279   2.179   3.459   3.525 -0.1989 -0.3702 -0.0742
   31CHL    CL2  280   1.964   3.377   3.339 -0.7142  0.1041  0.4018
   31CHL      H  281   2.178   3.304   3.329  0.6924  0.2154  1.2645
   32CHL     CL  282   1.929   2.907   1.352 -0.2393  0.2191 -0.3686
   32CHL      C  283   1.765   2.982   1.369  0.0656 -0.1729  0.1334
   32CHL    CL1  284   1.728   2.993   1.540  0.0824  0.0232  0.0566
   32CHL    CL2  285   1.749   3.145   1.296  0.1036 -0.2885  0.2368
   32CHL      H  286   1.690   2.916   1.324  1.0885 -1.9616  0.9450
   33CHL     CL  287   1.118   1.422   2.028 -0.3274 -0.0764 -0.2502
   33CHL      C  288   1.024   1.577   1.996  0.9573  0.3158 -0.1632
   33CHL    CL1  289   1.136   1.687   1.916 -0.3004 -0.5687 -0.2303
   33CHL    CL2  290   0.884   1.538   1.888  0.0395 -0.1388 -0.5489
   33CHL      H  291   0.981   1.619   2.087  3.6039 -2.3352  2.5299
   34CHL     CL  292   0.946   1.826   0.212 -0.0465 -0.0820 -0.0062
   34CHL      C  293   0.844   1.688   0.168  0.4020 -0.7224 -0.1166
   34CHL    CL1  294   0.761   1.618   0.316 -0.2237 -0.2719 -0.3064
   34CHL    CL2  295   0.726   1.734   0.041  0.4038 -0.1885 -0.0063
   34CHL      H  296   0.916   1.612   0.136  1.0324 -0.6670  1.1215
   35CHL     CL  297   0.126   2.544   0.788  0.3234 -0.1859 -0.2234
   35CHL      C  298   0.134   2.623   0.625 -0.4909  0.4224 -0.5490
   35CHL    CL1  299   0.247   2.754   0.631  0.0449 -0.2656  0.7985
   35CHL    CL2  300   0.192   2.493   0.515  0.1752 -0.0641 -0.2345
   35CHL      H  301   0.035   2.661   0.599 -1.9077 -0.6818  2.7162
   36CHL     CL  302   0.693   0.714   2.121  0.4031 -0.0193  0.3156
   36CHL      C  303   0.669   0.880   2.077  0.3670 -0.1743  0.3792
   36CHL    CL1  304   0.599   0.965   2.213  0.0431  0.1677 -0.1942
   36CHL    CL2  305   0.817   0.950   2.018 -0.2635 -0.2483 -0.5351
   36CHL      H  306   0.601   0.879   1.991  0.9982  0.7007 -0.1565
   37CHL     CL  307   1.382   2.798   1.619  0.4342  0.1657 -0.4582
   37CHL      C  308   1.326   2.887   1.467 -0.4570  0.0348  0.1655
   37CHL    CL1  309   1.150   2.890   1.458 -0.0818  0.1323 -0.2607
   37CHL    CL2  310   1.388   3.059   1.465  0.2257 -0.6335 -0.0473
   37CHL      H  311   1.364   2.828   1.383  2.6798  1.9993  0.0604
   38CHL     CL  312   2.365   2.846   1.199  0.1771 -0.1165 -0.2609
   38CHL      C  313   2.288   2.850   1.356 -0.0890  0.0241  0.1175
   38CHL    CL1  314   2.194   2.699   1.387  0.2273 -0.2870 -0.0281
   38CHL    CL2  315   2.421   2.883   1.490 -0.2612  0.4508  0.4121
   38CHL      H  316   2.214   2.931   1.356  0.0107  0.1409  1.4476
   39CHL     CL  317   3.002   0.153   2.360 -0.1248 -0.6247  0.1393
   39CHL      C  318   2.883   0.285   2.327 -0.0474 -0.7203 -0.3794
   39CHL    CL1  319   2.962   0.437   2.361 -0.0173 -0.2100 -0.3106
   39CHL    CL2  320   2.825   0.286   2.147 -0.1686 -0.2011 -0.4621
   39CHL      H  321   2.799   0.285   2.397  1.1249  2.0027  1.1601
   40CHL     CL  322   3.490   1.982   0.296  0.1624 -0.3698  0.3014
   40CHL      C  323   3.358   1.974   0.410  0.0726  0.5775  0.7212
   40CHL    CL1  324   3.387   2.037   0.580  0.4085  0.3252  0.2115
   40CHL    CL2  325   3.220   2.050   0.332 -0.1912 -0.2681  0.1562
   40CHL      H  326   3.338   1.867   0.417 -0.4785  0.4460 -1.7797
   41CHL     CL  327   3.094   2.752   2.819  0.0206  0.1259 -0.2964
   41CHL      C  328   3.262   2.710   2.815 -0.1006 -0.1354 -0.2530
   41CHL    CL1  329   3.308   2.640   2.975 -0.3619 -0.1739  0.0717
   41CHL    CL2  330   3.289   2.601   2.673  0.0518  0.4581 -0.1792
   41CHL      H  331   3.318   2.803   2.806  0.5094 -0.6277 -1.9817
   42CHL     CL  332   0.142   2.684   1.195 -0.3453 -0.2303 -0.2722
   42CHL      C  333   0.104   2.758   1.036  0.2597  0.4792  0.5652
   42CHL    CL1  334  -0.073   2.746   0.994  0.1328  0.0482 -0.2099
   42CHL    CL2  335   0.150   2.931   1.037  0.1401 -0.3937 -0.1493
   42CHL      H  336   0.165   2.703   0.964  0.0341 -1.3646  1.7364
   43CHL     CL  337   3.569   3.553   1.094  0.0990 -0.1365  0.2503
   43CHL      C  338   3.495   3.475   0.944 -0.4204  0.1137  0.5639
   43CHL    CL1  339   3.334   3.535   0.916 -0.0961 -0.4060 -0.1772
   43CHL    CL2  340   3.601   3.491   0.805  0.1283 -0.1458 -0.2718
   43CHL      H  341   3.477   3.369   0.965  0.5649 -0.2297 -0.2392
   44CHL     CL  342   3.445   2.237   3.290  0.5612 -0.2426 -0.2529
   44CHL      C  343   3.548   2.310   3.150 -0.2576  0.1341  0.9071
   44CHL    CL1  344   3.460   2.297   2.987 -0.2035  0.3180 -0.0693
   44CHL    CL2  345   3.588   2.478   3.199 -0.2441 -0.1825  0.1808
   44CHL      H  346   3.636   2.246   3.140 -0.4805  0.1371 -1.5140
   45CHL     CL  347   3.791   2.935   3.095 -0.2746 -0.0591 -0.1857
   45CHL      C  348   3.630   3.000   3.140  0.2880 -0.1053  0.4557
   45CHL    CL1  349   3.594   3.127   3.017 -0.3531  0.3434  0.2715
   45CHL    CL2  350   3.504   2.868   3.139  0.0700 -0.0037 -0.0306
   45CHL      H  351   3.634   3.044   3.241  0.4780 -0.6683  0.6984
   46CHL     CL  352   2.532   0.169   0.973  0.3743  0.3795  0.0905
   46CHL      C  353   2.536   0.345   0.988  0.1901 -0.8603 -0.6907
   46CHL    CL1  354   2.611   0.397   1.152 -0.3447 -0.0339 -0.2110
   46CHL    CL2  355   2.635   0.419   0.855 -0.1408  0.3852  0.2840
   46CHL      H  356   2.435   0.388   0.993  0.1617 -1.0187  0.4829
   47CHL     CL  357   0.089   3.190   2.869  0.0762  0.2150  0.2766
   47CHL      C  358   0.202   3.296   2.959  0.6533 -0.1526 -0.1962
   47CHL    CL1  359   0.292   3.184   3.077 -0.1849 -0.0144 -0.2738
   47CHL    CL2  360   0.332   3.371   2.853 -0.4068  0.1554 -0.3136
   47CHL      H  361   0.146   3.373   3.013 -0.0422 -1.8906  1.6938
   48CHL     CL  362   1.486   1.840   2.216  0.2001 -0.0340 -0.1259
   48CHL      C  363   1.550   1.873   2.383 -0.4305  0.4436  0.4449
   48CHL    CL1  364   1.480   1.768   2.512  0.0077  0.1401  0.3993
   48CHL    CL2  365   1.722   1.860   2.390 -0.0388 -0.2750  0.2277
   48CHL      H  366   1.533   1.978   2.406 -1.2057  0.7850 -1.5015
   49CHL     CL  367   2.244   2.489   3.153 -0.0014 -0.2726 -0.0470
   49CHL      C  368   2.106   2.517   3.035 -0.0585  0.0999 -0.0269
   49CHL    CL1  369   2.147   2.678   2.955  0.1861  0.3877 -0.1071
   49CHL    CL2  370   2.115   2.382   2.915  0.0479  0.1920  0.5327
   49CHL      H  371   2.009   2.535   3.084  0.4115  2.7183  0.1119
   50CHL     CL  372   0.236   0.705   3.062  0.0600  0.1959 -0.1195
   50CHL      C  373   0.330   0.679   2.902  0.1856  0.3230 -0.6473
   50CHL    CL1  374   0.477   0.578   2.931 -0.0897 -0.0580  0.1355
   50CHL    CL2  375   0.243   0.586   2.778  0.1211  0.1368  0.1523
   50CHL      H  376   0.358   0.779   2.867  0.1514  0.3496 -0.5995
   51CHL     CL  377   1.409   1.169   3.525  0.5121  0.5499  0.2869
   51CHL      C  378   1.496   1.020   3.446  0.1242  0.1954  0.1771
   51CHL    CL1  379   1.590   1.080   3.302 -0.0926 -0.0466  0.0163
   51CHL    CL2  380   1.608   0.936   3.559 -0.1193  0.0136  0.2225
   51CHL      H  381   1.417   0.950   3.415 -0.5867  1.1831 -0.2704
   52CHL     CL  382   2.255   2.079   1.268 -0.3279  0.1698  0.0249
   52CHL      C  383   2.233   1.957   1.407 -0.4708 -0.4408 -0.2760
   52CHL    CL1  384   2.386   1.972   1.506  0.1573  0.1225  0.4446
   52CHL    CL2  385   2.091   2.006   1.506  0.2268 -0.2117  0.3722
   52CHL      H  386   2.214   1.856   1.370 -3.0502 -0.4048  0.7455
   53CHL     CL  387   1.880   1.546   3.235  0.5656  0.1331  0.3674
   53CHL      C  388   1.807   1.518   3.075  0.4486  0.4807  0.3232
   53CHL    CL1  389   1.784   1.344   3.040  0.3427  0.4568 -0.0917
   53CHL    CL2  390   1.649   1.589   3.063  0.1355  0.1798  0.3261
   53CHL      H  391   1.877   1.557   3.000  0.3761 -3.1275 -1.8732
   54CHL     CL  392   0.247   3.616   2.061  0.3007  0.1948 -0.1338
   54CHL      C  393   0.372   3.499   2.123 -0.1209  0.2518 -0.2201
   54CHL    CL1  394   0.457   3.438   1.971 -0.2171 -0.2572  0.3285
   54CHL    CL2  395   0.499   3.594   2.216 -0.5987 -0.5779  0.0562
   54CHL      H  396   0.325   3.414   2.174  0.0410  0.7747  0.8306
   55CHL     CL  397   2.958   0.263   1.038 -0.1559  0.2145  0.2648
   55CHL      C  398   2.984   0.254   1.215  0.3386 -0.0426  0.6108
   55CHL    CL1  399   3.058   0.094   1.269  0.2018 -0.2057  0.1001
   55CHL    CL2  400   3.078   0.398   1.250 -0.1365 -0.1373  0.1065
   55CHL      H  401   2.886   0.265   1.263  1.0985 -0.5265  2.3415
   56CHL     CL  402   3.379   1.258   1.879 -0.5889  0.0370 -0.2088
   56CHL      C  403   3.368   1.391   2.008 -0.5644 -0.1988  0.0447
   56CHL    CL1  404   3.216   1.387   2.091 -0.0498 -0.3320  0.3132
   56CHL    CL2  405   3.500   1.371   2.122  0.1557 -0.1145  0.0857
   56CHL      H  406   3.381   1.489   1.960 -0.8647  0.2394  0.8487
   57CHL     CL  407   3.473   2.573   3.673  0.4324 -0.2632  0.2249
   57CHL      C  408   3.361   2.514   3.541 -0.3189  0.1125 -0.4365
   57CHL    CL1  409   3.209   2.431   3.607 -0.0878 -0.0220  0.4089
   57CHL    CL2  410   3.314   2.642   3.428 -0.1186 -0.2189 -0.1187
   57CHL      H  411   3.429   2.443   3.493  0.9726  1.4293 -0.6346
   58CHL     CL  412   0.095   3.559   3.457  0.1565  0.3594 -0.7487
   58CHL      C  413   0.275   3.546   3.473  0.1231 -0.0460 -0.4441
   58CHL    CL1  414   0.332   3.696   3.553  0.0505 -0.2438  0.0401
   58CHL    CL2  415   0.309   3.400   3.564 -0.2703  0.1313  0.2511
   58CHL      H  416   0.317   3.535   3.372  2.0714 -1.2915  0.4364
   59CHL     CL  417   0.688   3.525   3.805  0.0851 -0.0100 -0.4139
   59CHL      C  418   0.861   3.548   3.835  0.6497  0.0631 -0.2463
   59CHL    CL1  419   0.922   3.641   3.683 -0.1944 -0.1367 -0.2888
   59CHL    CL2  420   0.897   3.626   4.003  0.2071 -0.2167 -0.0868
   59CHL      H  421   0.908   3.449   3.832 -0.3563 -0.4749  0.7509
   60CHL     CL  422   3.704   3.713   1.755 -0.1394  0.0555  0.3164
   60CHL      C  423   3.814   3.857   1.743 -0.3506 -0.4798 -0.3130
   60CHL    CL1  424   3.880   3.880   1.576 -0.2042 -0.1812  0.2889
   60CHL    CL2  425   3.739   4.013   1.797 -0.2219  0.2192  0.2688
   60CHL      H  426   3.906   3.844   1.800 -0.1310 -2.3651 -1.0438
   61CHL     CL  427   3.023   1.542   0.148 -0.1468 -0.1896 -0.2593
   61CHL      C  428   3.114   1.473   0.014 -0.4767 -0.3778 -1.1222
   61CHL    CL1  429   3.257   1.566  -0.043  0.0527  0.0721 -0.4786
   61CHL    CL2  430   3.190   1.320   0.062  0.3839 -0.1198 -0.2520
   61CHL      H  431   3.039   1.464  -0.066 -1.9003 -0.1391  0.1470
   62CHL     CL  432   1.613   0.518   2.471 -0.0769 -0.0364  0.1114
   62CHL      C  433   1.520   0.445   2.609  0.0317 -0.2401 -0.0610
   62CHL    CL1  434   1.344   0.497   2.611  0.5096  0.4312 -0.1659
   62CHL    CL2  435   1.557   0.265   2.611 -0.1420  0.1412 -0.0825
   62CHL      H  436   1.566   0.492   2.697 -0.1767 -3.3900  1.8731
   63CHL     CL  437   3.543   3.002   3.471 -0.1373 -0.1798 -0.1114
   63CHL      C  438   3.371   3.008   3.472  0.4578 -0.7786 -0.5205
   63CHL    CL1  439   3.294   2.999   3.635  0.1089  0.2082 -0.2237
   63CHL    CL2  440   3.320   3.166   3.386 -0.5047  0.2884 -0.2402
   63CHL      H  441   3.347   2.917   3.415 -0.9363  0.1380 -1.4637
   64CHL     CL  442   3.539   1.154   3.328  0.0755 -0.3728  0.3871
   64CHL      C  443   3.413   1.267   3.380  0.4531  0.5908 -0.5831
   64CHL    CL1  444   3.288   1.265   3.258 -0.2240 -0.2164 -0.4908
   64CHL    CL2  445   3.340   1.224   3.548  0.0837  0.1019  0.2987
   64CHL      H  446   3.465   1.363   3.392  3.5651 -1.1592  1.1265
   65CHL     CL  447   2.052   3.117   3.091  0.0844  0.1947 -0.0905
   65CHL      C  448   2.177   3.056   2.984 -0.5917 -0.6658 -1.0837
   65CHL    CL1  449   2.123   3.073   2.815  0.1445 -0.1278  0.0642
   65CHL    CL2  450   2.323   3.152   3.004  0.2736 -0.2809 -0.1864
   65CHL      H  451   2.203   2.953   3.008 -2.1439 -0.4615  1.9349
   66CHL     CL  452   0.678   2.670   0.364 -0.2663 -0.5189  0.1370
   66CHL      C  453   0.597   2.521   0.344  0.4424 -0.6416 -0.5976
   66CHL    CL1  454   0.708   2.409   0.259  0.0617  0.0778 -0.0822
   66CHL    CL2  455   0.571   2.455   0.505 -0.2477  0.1198 -0.0023
   66CHL      H  456   0.501   2.540   0.295  1.2452  3.3837 -0.9156
   67CHL     CL  457   0.263   2.097   1.067 -0.0264 -0.0279  0.2201
   67CHL      C  458   0.224   1.963   1.184 -1.3446 -0.2301  0.1487
   67CHL    CL1  459   0.114   2.025   1.308 -0.1060 -0.0511 -0.2368
   67CHL    CL2  460   0.145   1.837   1.108  0.5366  0.0101  0.1114
   67CHL      H  461   0.321   1.935   1.226 -0.2399  3.6092  0.5648
   68CHL     CL  462   3.108   0.714   1.742 -0.0541  0.0376 -0.0256
   68CHL      C  463   3.089   0.526   1.711 -0.4732 -0.3353  0.0667
   68CHL    CL1  464   3.251   0.447   1.671 -0.0195 -0.1324  0.2959
   68CHL    CL2  465   3.027   0.446   1.860 -0.0679 -0.1147  0.0513
   68CHL      H  466   3.035   0.518   1.616  2.9406  0.4837 -2.1059
   69CHL     CL  467   3.359   0.686   0.504 -0.0029 -0.1581  0.0507
   69CHL      C  468   3.419   0.547   0.417 -0.9507  0.4650  0.3977
   69CHL    CL1  469   3.361   0.546   0.252  0.0721 -0.0402 -0.2583
   69CHL    CL2  470   3.595   0.557   0.406 -0.2534 -0.3151  0.0956
   69CHL      H  471   3.392   0.456   0.472  0.5131 -2.2220 -2.9251
   70CHL     CL  472   3.369   1.568   2.895  0.5103 -0.0437  0.3198
   70CHL      C  473   3.455   1.455   2.785 -0.1012  0.4441  0.3487
   70CHL    CL1  474   3.587   1.542   2.700  0.1205 -0.1537 -0.2673
   70CHL    CL2  475   3.522   1.318   2.887 -0.1864  0.0334 -0.8396
   70CHL      H  476   3.391   1.413   2.707  1.2535 -1.5620  0.2732
   71CHL     CL  477   1.754   3.170   1.877 -0.1243  0.3292  0.1785
   71CHL      C  478   1.752   3.282   2.018 -0.4358  0.1639 -0.1261
   71CHL    CL1  479   1.916   3.276   2.098  0.3586  0.1612 -0.3244
   71CHL    CL2  480   1.721   3.454   1.966  0.2226 -0.3256 -0.0945
   71CHL      H  481   1.676   3.251   2.090 -0.7248  0.8995 -0.0981
   72CHL     CL  482   1.615   0.698   0.900 -0.3743  0.1054  0.5482
   72CHL      C  483   1.636   0.833   1.014  0.1009  0.5239  0.0523
   72CHL    CL1  484   1.470   0.888   1.065 -0.0339 -0.1940  0.0923
   72CHL    CL2  485   1.729   0.789   1.163  0.6928 -0.4235  0.2935
   72CHL      H  486   1.686   0.910   0.954  1.7573  1.2691  2.2512
   73CHL     CL  487   1.510   2.235   2.281 -0.2465  0.2875 -0.0902
   73CHL      C  488   1.380   2.318   2.373  0.2684  0.3240  0.3559
   73CHL    CL1  489   1.279   2.188   2.453  0.1656 -0.1608 -0.0131
   73CHL    CL2  490   1.437   2.431   2.495 -0.0518  0.2764 -0.7038
   73CHL      H  491   1.319   2.378   2.306  0.1719 -0.2277 -0.0576
   74CHL     CL  492   3.157   2.776   0.541 -0.0376  0.0309  0.0257
   74CHL      C  493   3.085   2.925   0.466  0.3457  0.0449  0.9565
   74CHL    CL1  494   2.961   2.873   0.347 -0.1084 -0.2605 -0.2193
   74CHL    CL2  495   3.001   3.012   0.596 -0.1210 -0.0506  0.6250
   74CHL      H  496   3.152   2.997   0.418 -0.4711  1.3494  1.7120
   75CHL     CL  497   0.524   1.217   1.336 -0.0960  0.1129 -0.0089
   75CHL      C  498   0.351   1.169   1.365 -0.7609 -0.0343  0.2443
   75CHL    CL1  499   0.352   0.992   1.380  0.2425 -0.1391 -0.0498
   75CHL    CL2  500   0.282   1.249   1.520 -0.0302  0.0026 -0.0932
   75CHL      H  501   0.292   1.191   1.275  1.8311  2.2474 -1.0126
   76CHL     CL  502   0.432   0.222   3.651 -0.3029  0.1948 -0.3601
   76CHL      C  503   0.260   0.195   3.686  0.4019  0.0526  0.1274
   76CHL    CL1  504   0.237   0.167   3.864  0.2727 -0.2075 -0.0844
   76CHL    CL2  505   0.170   0.346   3.629 -0.1620  0.2534  0.3121
   76CHL      H  506   0.238   0.106   3.626 -4.4052  0.8810  0.2581
   77CHL     CL  507   0.802   0.434   1.259  0.2060  0.1459  0.1296
   77CHL      C  508   0.892   0.365   1.397 -0.4787 -0.4988 -0.4503
   77CHL    CL1  509   0.871   0.189   1.404  0.5526 -0.3189 -0.4291
   77CHL    CL2  510   1.072   0.386   1.377 -0.1368 -0.1449 -0.1361
   77CHL      H  511   0.863   0.418   1.488  2.2891 -1.8941  1.4332
   78CHL     CL  512   0.493   2.692   3.062  0.1590 -0.2166  0.1329
   78CHL      C  513   0.608   2.791   2.977 -0.5563 -0.0381 -0.1827
   78CHL    CL1  514   0.764   2.704   2.981 -0.0847 -0.0750  0.8339
   78CHL    CL2  515   0.561   2.806   2.807 -0.0343  0.0272 -0.1622
   78CHL      H  516   0.619   2.887   3.029  1.3722 -0.2413 -0.1426
   79CHL     CL  517   2.074   0.548   1.747  0.1178 -0.3162  0.2338
   79CHL      C  518   1.967   0.414   1.689  0.8175  0.9460  0.0170
   79CHL    CL1  519   2.021   0.262   1.761 -0.1704  0.1677 -0.0878
   79CHL    CL2  520   1.791   0.436   1.747 -0.1033 -0.1815  0.4841
   79CHL      H  521   1.967   0.415   1.580  0.3316 -1.6268 -0.0740
   80CHL     CL  522   0.347   1.600   0.836  0.0294  0.3363  0.1190
   80CHL      C  523   0.432   1.608   1.002  0.1128  0.2730 -0.0703
   80CHL    CL1  524   0.487   1.444   1.051 -0.4116 -0.3015 -0.0155
   80CHL    CL2  525   0.561   1.739   1.001 -0.1967  0.1232  0.0877
   80CHL      H  526   0.367   1.638   1.085  1.3600 -0.5720  1.2699
   81CHL     CL  527   3.110   2.998   2.490  0.0416 -0.5750 -0.0920
   81CHL      C  528   2.997   3.117   2.402 -0.6952 -0.3517 -0.3697
   81CHL    CL1  529   2.924   3.043   2.259 -0.0225 -0.0246  0.5513
   81CHL    CL2  530   2.874   3.163   2.521 -0.0960 -0.0126  0.5730
   81CHL      H  531   3.057   3.207   2.381 -1.2400 -0.1049 -0.9003
   82CHL     CL  532   1.140   1.102   1.716  0.1272  0.4984  0.0519
   82CHL      C  533   1.238   1.209   1.609  0.6820  0.1314  0.5681
   82CHL    CL1  534   1.255   1.127   1.448  0.4258 -0.5190  0.0214
   82CHL    CL2  535   1.163   1.370   1.603 -0.1888 -0.1071 -0.0275
   82CHL      H  536   1.339   1.221   1.650 -0.6266  2.5154  3.4641
   83CHL     CL  537   0.672   3.150   3.044 -0.0397  0.1813  0.0327
   83CHL      C  538   0.827   3.186   3.134 -0.0688  0.2780  0.5585
   83CHL    CL1  539   0.835   3.087   3.281  0.1430  0.0292 -0.2631
   83CHL    CL2  540   0.964   3.141   3.021 -0.2114  0.2250 -0.3729
   83CHL      H  541   0.845   3.292   3.156  0.4324  0.3969 -0.3955
   84CHL     CL  542   1.839   2.877   3.013 -0.1170 -0.3357  0.0504
   84CHL      C  543   1.732   3.019   3.048 -0.0396 -0.4582 -0.1343
   84CHL    CL1  544   1.570   3.002   2.974  0.5236  0.0831  0.6471
   84CHL    CL2  545   1.711   3.019   3.231  0.3337  0.2995  0.3133
   84CHL      H  546   1.781   3.112   3.016 -0.8987  0.6078  1.5218
   85CHL     CL  547   2.746   3.730   1.142 -0.0965 -0.4235 -0.0614
   85CHL      C  548   2.727   3.778   1.329  0.0052 -0.4882  0.4135
   85CHL    CL1  549   2.601   3.904   1.348 -0.0156  0.1598  0.0596
   85CHL    CL2  550   2.674   3.637   1.419  0.3700 -0.2332 -0.0476
   85CHL      H  551   2.824   3.813   1.367 -0.6632  0.3799  1.3815
   86CHL     CL  552   0.814   2.754   1.375 -0.0687 -0.4105  0.1646
   86CHL      C  553   0.718   2.886   1.321 -0.4584  1.1488  0.3516
   86CHL    CL1  554   0.726   3.012   1.438  0.1460  0.2692 -0.0567
   86CHL    CL2  555   0.793   2.951   1.173 -0.1550  0.1246  0.0340
   86CHL      H  556   0.615   2.849   1.313 -0.0357 -0.3301  1.2802
   87CHL     CL  557   3.159   3.023   3.075  0.2654 -0.3258 -0.0076
   87CHL      C  558   3.150   3.186   2.991 -0.0917  0.3049 -0.1348
   87CHL    CL1  559   3.284   3.290   3.037 -0.2691 -0.1578  0.2045
   87CHL    CL2  560   3.148   3.161   2.804 -0.1779  0.4443  0.2191
   87CHL      H  561   3.059   3.227   3.035 -0.1536 -2.4172  2.6258
   88CHL     CL  562   3.465   3.148   0.565  0.0152  0.5643  0.0674
   88CHL      C  563   3.449   3.121   0.740 -0.0142 -0.2504  0.4498
   88CHL    CL1  564   3.295   3.062   0.794 -0.0581  0.0648 -0.2458
   88CHL    CL2  565   3.585   3.012   0.804  0.4370  0.0905  0.0097
   88CHL      H  566   3.455   3.223   0.779  0.0677  0.1264 -0.5165
   89CHL     CL  567   2.768   0.768   0.000  0.5028 -0.1367  0.0961
   89CHL      C  568   2.600   0.712   0.043 -0.2878 -0.1053 -0.0248
   89CHL    CL1  569   2.589   0.537   0.069  0.3876 -0.0543  0.0523
   89CHL    CL2  570   2.558   0.778   0.202 -0.3069  0.2405 -0.0158
   89CHL      H  571   2.532   0.757  -0.029  1.1079  1.1617 -0.6054
   90CHL     CL  572   0.360   3.688   0.447  0.2197  0.4913  0.2764
   90CHL      C  573   0.453   3.834   0.429  0.6778  0.1710  0.3128
   90CHL    CL1  574   0.584   3.804   0.307 -0.3210 -0.2036  0.1581
   90CHL    CL2  575   0.351   3.965   0.358 -0.0715 -0.1070 -0.2152
   90CHL      H  576   0.488   3.860   0.530 -1.2389 -0.2167  1.1296
   91CHL     CL  577   1.742   3.367   2.407  0.1630 -0.1078 -0.0703
   91CHL      C  578   1.823   3.329   2.557  0.7181 -0.2154  0.2725
   91CHL    CL1  579   1.813   3.467   2.681  0.0857  0.0345  0.0990
   91CHL    CL2  580   1.772   3.172   2.621  0.2989  0.0163 -0.4965
   91CHL      H  581   1.925   3.310   2.521  1.5933  0.7518  2.0653
   92CHL     CL  582   0.716   3.742   1.903  0.5134 -0.0437  0.3778
   92CHL      C  583   0.867   3.783   1.808 -0.4233  0.3266  0.5413
   92CHL    CL1  584   0.874   3.676   1.663  0.0185  0.3678 -0.5087
   92CHL    CL2  585   0.877   3.957   1.762  0.5315 -0.2251 -0.2408
   92CHL      H  586   0.954   3.750   1.865  1.0929  0.8651 -1.3790
   93CHL     CL  587   2.445   1.927   3.523 -0.1569 -0.1736 -0.3734
   93CHL      C  588   2.384   1.866   3.682  0.1618  0.8500  0.1499
   93CHL    CL1  589   2.226   1.922   3.728  0.3042  0.0739  0.6234
   93CHL    CL2  590   2.377   1.689   3.663 -0.0690 -0.1407  0.3547
   93CHL      H  591   2.462   1.900   3.752  2.3796 -0.1441 -1.7131
   94CHL     CL  592   3.284   2.876   2.038 -0.1573 -0.5266  0.2690
   94CHL      C  593   3.185   2.776   1.929  0.2708  0.5674  0.1000
   94CHL    CL1  594   3.200   2.603   1.979  0.2205 -0.0974 -0.1256
   94CHL    CL2  595   3.018   2.843   1.950 -0.4529  0.0163 -0.0241
   94CHL      H  596   3.217   2.785   1.824  1.6236 -0.0515  0.4330
   95CHL     CL  597   1.961   1.072   1.313  0.1480  0.2307 -0.0197
   95CHL      C  598   1.839   1.167   1.405  0.5700 -0.0789 -0.1347
   95CHL    CL1  599   1.887   1.346   1.416  0.3038  0.3256 -0.0108
   95CHL    CL2  600   1.673   1.151   1.323 -0.5125  0.1921  0.0262
   95CHL      H  601   1.838   1.136   1.510  1.6030  1.3700  0.3506
   96CHL     CL  602   1.205   3.518   0.641 -0.0178  0.0349  0.3397
   96CHL      C  603   1.178   3.635   0.789 -0.1999 -0.8880 -0.4213
   96CHL    CL1  604   1.083   3.554   0.929  0.4736 -0.0620 -0.0565
   96CHL    CL2  605   1.340   3.702   0.846 -0.3050 -0.1957 -0.2284
   96CHL      H  606   1.136   3.731   0.760  2.5359  1.2159  1.9200
   97CHL     CL  607   2.244   3.724   2.800  0.0922  0.1447 -0.3990
   97CHL      C  608   2.171   3.650   2.649  0.1978 -0.5371 -0.0231
   97CHL    CL1  609   2.229   3.736   2.504 -0.1524 -0.2020 -0.4705
   97CHL    CL2  610   2.222   3.480   2.628 -0.0110 -0.2960 -0.1016
   97CHL      H  611   2.062   3.653   2.655  0.1742 -2.4362  1.9446
   98CHL     CL  612   2.562   3.228   1.017 -0.0171 -0.0193  0.3410
   98CHL      C  613   2.708   3.222   0.919  0.2151  0.0489 -0.0088
   98CHL    CL1  614   2.852   3.212   1.025  0.2231 -0.0177 -0.1548
   98CHL    CL2  615   2.686   3.083   0.802  0.4719  0.1982 -0.1746
   98CHL      H  616   2.718   3.309   0.853 -0.0514  1.0208  1.2162
   99CHL     CL  617   0.740   1.854   3.479 -0.1411  0.1281 -0.1737
   99CHL      C  618   0.631   1.705   3.481 -0.0841  0.3802  0.8503
   99CHL    CL1  619   0.488   1.739   3.576  0.1677  0.0311  0.0111
   99CHL    CL2  620   0.580   1.659   3.307 -0.5305  0.0797  0.1687
   99CHL      H  621   0.678   1.610   3.508 -0.2656 -0.6430 -2.0284
  100CHL     CL  622   3.439   3.098   1.096 -0.1971  0.1130 -0.1803
  100CHL      C  623   3.615   3.071   1.149 -0.7460 -0.3239 -0.3308
  100CHL    CL1  624   3.724   3.197   1.065  0.5260  0.6437 -0.1309
  100CHL    CL2  625   3.625   3.088   1.329 -0.0276 -0.4703 -0.3623
  100CHL      H  626   3.646   2.968   1.128 -0.2405 -0.6231  1.6615
  101CHL     CL  627   2.301   3.770   2.000 -0.2265 -0.0104 -0.0059
  101CHL      C  628   2.457   3.680   1.995 -0.2519  1.0247  0.6692
  101CHL    CL1  629   2.598   3.792   1.961  0.2602  0.0145 -0.2432
  101CHL    CL2  630   2.493   3.591   2.148  0.0506 -0.1145  0.5309
  101CHL      H  631   2.442   3.602   1.920 -0.1428  3.1400 -1.6968
  102CHL     CL  632   0.101   3.097   0.757  0.0986  0.3229  0.0647
  102CHL      C  633   0.095   3.178   0.596 -0.9115  0.2382 -0.6470
  102CHL    CL1  634   0.095   3.064   0.454  0.2168 -0.0872 -0.1674
  102CHL    CL2  635  -0.048   3.277   0.605 -0.1746 -0.0606  0.1765
  102CHL      H  636   0.176   3.251   0.582 -0.3996 -0.2962 -0.5202
  103CHL     CL  637   2.126   1.375   3.455 -0.1611 -0.0926 -0.1556
  103CHL      C  638   2.076   1.344   3.631  0.0147  0.2943  0.0106
  103CHL    CL1  639   2.213   1.264   3.730 -0.1700 -0.1781  0.0022
  103CHL    CL2  640   2.003   1.493   3.719 -0.2573 -0.1092  0.1766
  103CHL      H  641   2.004   1.262   3.624  1.3271 -0.9399  0.5451
  104CHL     CL  642   1.012   2.055   0.795 -0.3418  0.2791 -0.1021
  104CHL      C  643   0.859   2.085   0.701  0.3255 -0.0380 -0.5735
  104CHL    CL1  644   0.792   2.241   0.740  0.0062  0.1862  0.2524
  104CHL    CL2  645   0.884   2.061   0.525  0.1039 -0.0219  0.3098
  104CHL      H  646   0.775   2.027   0.743  1.4031  0.6845  2.9297
  105CHL     CL  647   1.884   2.510   3.273  0.2801 -0.5137 -0.3501
  105CHL      C  648   1.720   2.505   3.189 -0.2221  0.3937 -0.6485
  105CHL    CL1  649   1.633   2.655   3.227 -0.0536  0.1015 -0.2187
  105CHL    CL2  650   1.742   2.490   3.008  0.2755  0.4145 -0.1564
  105CHL      H  651   1.657   2.424   3.227  0.9441  0.8997  2.6697
  106CHL     CL  652   1.291   2.904   2.205 -0.1927  0.0170  0.4549
  106CHL      C  653   1.333   3.064   2.144  0.3917  0.0535  0.1378
  106CHL    CL1  654   1.377   3.169   2.278  0.0494 -0.0427 -0.2128
  106CHL    CL2  655   1.479   3.039   2.045 -0.3722  0.3995  0.2366
  106CHL      H  656   1.246   3.105   2.090  0.1799 -0.2254  0.2629
  107CHL     CL  657   0.511   0.924   3.213  0.0891  0.0179  0.4875
  107CHL      C  658   0.495   1.074   3.105 -0.3692  0.1889  0.3852
  107CHL    CL1  659   0.408   1.037   2.962  0.4859  0.1438  0.0598
  107CHL    CL2  660   0.397   1.195   3.189  0.6156  0.0952 -0.2199
  107CHL      H  661   0.588   1.125   3.079 -0.3461 -0.4391 -0.8491
  108CHL     CL  662   3.648   3.697   3.132  0.5298 -0.1261  0.5494
  108CHL      C  663   3.582   3.530   3.111 -0.1384  0.2984  0.8436
  108CHL    CL1  664   3.682   3.458   2.975  0.3490  0.0669  0.0623
  108CHL    CL2  665   3.618   3.432   3.249  0.3205  0.0763  0.1876
  108CHL      H  666   3.475   3.522   3.091 -0.0767  1.0957  0.1114
  109CHL     CL  667   1.818   0.839   2.801  0.4254 -0.0158  0.3631
  109CHL      C  668   1.664   0.939   2.790 -0.3681  0.0036  0.2260
  109CHL    CL1  669   1.614   1.010   2.955  0.3167  0.4685 -0.0477
  109CHL    CL2  670   1.691   1.062   2.662  0.1609  0.0936  0.0167
  109CHL      H  671   1.584   0.880   2.744  0.4251 -1.1864  0.3282
  110CHL     CL  672   1.207   2.593   0.049 -0.1515  0.0049 -0.1116
  110CHL      C  673   1.072   2.563  -0.056 -0.1232 -0.6471 -0.0834
  110CHL    CL1  674   0.998   2.412   0.007  0.1044 -0.4750  0.4959
  110CHL    CL2  675   0.953   2.700  -0.044 -0.1939 -0.0735 -0.1183
  110CHL      H  676   1.104   2.558  -0.161  1.9175 -1.6490  0.5374
  111CHL     CL  677   1.518   0.306   1.186 -0.5075 -0.1115 -0.0954
  111CHL      C  678   1.670   0.293   1.284  0.0606 -0.6804  0.1397
  111CHL    CL1  679   1.632   0.220   1.447 -0.1203  0.3876  0.1874
  111CHL    CL2  680   1.788   0.201   1.196 -0.0840 -0.2721  0.2440
  111CHL      H  681   1.708   0.389   1.320  2.1836 -1.0852 -0.8970
  112CHL     CL  682   3.778   1.382   3.185 -0.2902 -0.4000  0.1616
  112CHL      C  683   3.675   1.528   3.124 -0.5767 -0.1918  0.0112
  112CHL    CL1  684   3.521   1.564   3.203 -0.0768  0.1293 -0.0043
  112CHL    CL2  685   3.784   1.675   3.125 -0.3876  0.0437  0.1354
  112CHL      H  686   3.650   1.510   3.019 -1.9987  0.6095  0.1935
  113CHL     CL  687   2.254   2.069   1.810 -0.0972  0.2034  0.0621
  113CHL      C  688   2.366   1.978   1.913 -0.3264  0.8034 -0.0084
  113CHL    CL1  689   2.314   1.810   1.950  0.0589 -0.1135 -0.1192
  113CHL    CL2  690   2.530   1.980   1.831  0.1547  0.0779  0.0685
  113CHL      H  691   2.381   2.039   2.003 -3.9571 -1.9797  2.8320
  114CHL     CL  692   1.177   0.745   0.614  0.0955 -0.1112 -0.1584
  114CHL      C  693   1.263   0.899   0.576 -0.1238 -0.2929 -0.4796
  114CHL    CL1  694   1.443   0.868   0.549 -0.0504 -0.3822 -0.0653
  114CHL    CL2  695   1.190   0.961   0.430  0.3079 -0.1079 -0.4333
  114CHL      H  696   1.238   0.964   0.661  0.0298  2.0436 -2.1244
  115CHL     CL  697   0.500   2.106   0.494 -0.0081 -0.3980  0.0471
  115CHL      C  698   0.405   2.016   0.608 -0.0248  0.2579 -0.2634
  115CHL    CL1  699   0.517   1.887   0.672  0.0528 -0.1562  0.1649
  115CHL    CL2  700   0.348   2.124   0.740  0.4352  0.1319  0.0242
  115CHL      H  701   0.324   1.967   0.554 -1.5623  2.8141 -0.3826
  116CHL     CL  702   3.723   0.821   1.239  0.3186  0.0435 -0.0246
  116CHL      C  703   3.855   0.939   1.260  0.4873  0.5633  0.2440
  116CHL    CL1  704   3.881   1.037   1.113  0.2881 -0.3306 -0.0819
  116CHL    CL2  705   3.812   1.055   1.390  0.7094  0.1147  0.1364
  116CHL      H  706   3.948   0.890   1.289  0.0515 -1.0006 -0.9015
  117CHL     CL  707   1.839   2.553   1.689  0.0761  0.1199  0.3388
  117CHL      C  708   1.921   2.391   1.725 -0.0672  0.3912 -0.0859
  117CHL    CL1  709   2.096   2.420   1.680  0.2407  0.2906 -0.2033
  117CHL    CL2  710   1.904   2.351   1.897 -0.3145  0.0377 -0.1433
  117CHL      H  711   1.883   2.308   1.666 -2.5147  1.4853 -0.1692
  118CHL     CL  712   3.033   0.007   2.782  0.0314  0.0887 -0.8229
  118CHL      C  713   3.190   0.070   2.843  0.9596  0.1866  0.3994
  118CHL    CL1  714   3.238   0.230   2.769 -0.4983  0.0533  0.1869
  118CHL    CL2  715   3.193   0.068   3.027 -0.1171 -0.4118  0.1571
  118CHL      H  716   3.271   0.004   2.809  1.1385  0.5608  0.0904
  119CHL     CL  717   0.183   2.416   3.175  0.3107 -0.1164  0.3266
  119CHL      C  718   0.239   2.271   3.089 -0.4811 -1.1141  0.1986
  119CHL    CL1  719   0.135   2.215   2.951 -0.2283  0.1747  0.3196
  119CHL    CL2  720   0.397   2.305   3.025 -0.0253  0.2496  0.2146
  119CHL      H  721   0.240   2.190   3.163  0.9225  0.1569  1.6533
  120CHL     CL  722   2.189   1.846   2.525 -0.3039  0.2893 -0.2711
  120CHL      C  723   2.246   1.910   2.676 -1.0155 -0.7117 -0.0216
  120CHL    CL1  724   2.237   2.079   2.651  0.1074 -0.2042  0.2284
  120CHL    CL2  725   2.137   1.872   2.806  0.0852 -0.1378 -0.0979
  120CHL      H  726   2.350   1.878   2.694 -0.0297  2.9874  1.8376
  121CHL     CL  727   0.742   1.366   2.152  0.2722 -0.3217 -0.0805
  121CHL      C  728   0.802   1.431   2.313  0.1970  0.8407 -0.2573
  121CHL    CL1  729   0.803   1.612   2.307 -0.0782  0.1689  0.5263
  121CHL    CL2  730   0.698   1.355   2.435 -0.1001 -0.0611  0.2036
  121CHL      H  731   0.907   1.401   2.312  0.3118  1.1423  0.8940
  122CHL     CL  732   3.620   3.313   1.759  0.0218 -0.0366 -0.1697
  122CHL      C  733   3.608   3.144   1.692  0.7873 -1.0143  0.4229
  122CHL    CL1  734   3.772   3.080   1.644  0.0336  0.3809  0.1476
  122CHL    CL2  735   3.527   3.034   1.807 -0.7264  0.0151 -0.1516
  122CHL      H  736   3.553   3.156   1.598 -0.4360 -0.0484  1.2313
  123CHL     CL  737   2.637   0.525   2.314  0.4345  0.3154 -0.0974
  123CHL      C  738   2.495   0.461   2.235 -0.1246 -0.0562  0.2077
  123CHL    CL1  739   2.526   0.455   2.062 -0.0958 -0.3595 -0.3004
  123CHL    CL2  740   2.439   0.300   2.301  0.1316 -0.1099 -0.0013
  123CHL      H  741   2.411   0.531   2.238  0.9326  1.2720 -0.2822
  124CHL     CL  742   1.724   2.100   1.664 -0.3117 -0.0371 -0.5328
  124CHL      C  743   1.595   2.030   1.769 -0.7651  0.1094  0.8219
  124CHL    CL1  744   1.590   2.112   1.925 -0.4921  0.0046  0.0241
  124CHL    CL2  745   1.437   2.043   1.695 -0.5225 -0.6532 -0.2508
  124CHL      H  746   1.622   1.925   1.784 -0.2454 -0.1559 -1.5791
  125CHL     CL  747   0.006   2.330   2.579  0.1096 -0.3357  0.3197
  125CHL      C  748   0.154   2.234   2.522 -0.2827  0.0598 -0.0531
  125CHL    CL1  749   0.300   2.337   2.533 -0.1388 -0.1491 -0.0573
  125CHL    CL2  750   0.179   2.089   2.628 -0.0551 -0.1144  0.1341
  125CHL      H  751   0.140   2.193   2.422  0.8569 -0.0532 -0.1895
  126CHL     CL  752   0.146   0.668   0.858  0.1377  0.0408 -0.0342
  126CHL      C  753   0.187   0.491   0.875 -0.2821  0.3363  0.5402
  126CHL    CL1  754   0.278   0.424   0.732 -0.2389 -0.0591 -0.0457
  126CHL    CL2  755   0.282   0.473   1.028  0.2087  0.0585 -0.1525
  126CHL      H  756   0.094   0.434   0.875 -0.0669 -0.0379 -0.6170
  127CHL     CL  757   2.853   2.728   3.689 -0.0376  0.1204 -0.2754
  127CHL      C  758   3.007   2.818   3.705 -0.7921  0.1671 -0.2280
  127CHL    CL1  759   2.970   2.996   3.743 -0.3928 -0.5678  0.5625
  127CHL    CL2  760   3.122   2.740   3.805  0.2092 -0.0065  0.0234
  127CHL      H  761   3.062   2.820   3.610 -0.8583 -1.1493 -0.3188
  128CHL     CL  762   2.855   0.377   2.825 -0.2525 -0.1395  0.0639
  128CHL      C  763   2.780   0.257   2.942 -0.1921 -0.6739 -0.4110
  128CHL    CL1  764   2.882   0.268   3.086  0.0021  0.2967  0.1434
  128CHL    CL2  765   2.613   0.297   2.988 -0.0125  0.0466 -0.2265
  128CHL      H  766   2.794   0.154   2.905  0.5352 -0.2933 -1.2430
  129CHL     CL  767   2.749   0.166   0.074 -0.0736 -0.1707  0.3003
  129CHL      C  768   2.654   0.097   0.211 -0.3731 -0.4520 -0.4964
  129CHL    CL1  769   2.722   0.142   0.370 -0.4617  0.1816  0.2622
  129CHL    CL2  770   2.478   0.143   0.181 -0.2142 -0.4551  0.1954
  129CHL      H  771   2.669  -0.011   0.198  0.8300 -0.1136 -2.1760
  130CHL     CL  772   0.115   3.463   1.359  0.2979 -0.0230 -0.3720
  130CHL      C  773   0.124   3.587   1.236  0.1375 -0.2992  0.1910
  130CHL    CL1  774   0.007   3.733   1.267  0.1880  0.0375 -0.1656
  130CHL    CL2  775   0.300   3.626   1.216  0.0711  0.0363  0.3836
  130CHL      H  776   0.088   3.550   1.139  0.0952 -0.2718  0.1960
  131CHL     CL  777   1.564   2.279   3.437 -0.4333  0.3556 -0.1358
  131CHL      C  778   1.642   2.122   3.401 -0.0509 -0.1396 -0.2002
  131CHL    CL1  779   1.512   2.004   3.369 -0.0712 -0.4544  0.0623
  131CHL    CL2  780   1.738   2.146   3.260  0.3668 -0.1909 -0.0212
  131CHL      H  781   1.706   2.092   3.485  0.3819  1.1574 -0.0391
  132CHL     CL  782   1.595   0.075   2.321  0.0456  0.3408 -0.2085
  132CHL      C  783   1.644  -0.098   2.282 -0.6304  0.2022 -0.5033
  132CHL    CL1  784   1.798  -0.131   2.376  0.0256 -0.2737 -0.3123
  132CHL    CL2  785   1.508  -0.212   2.307 -0.1885  0.1938  0.4231
  132CHL      H  786   1.669  -0.104   2.175  1.6644  1.1758 -0.0686
  133CHL     CL  787   3.453   2.877   2.425  0.1099  0.3447 -0.1134
  133CHL      C  788   3.513   3.005   2.521 -0.4350  0.1739 -0.6476
  133CHL    CL1  789   3.629   2.934   2.644 -0.1404 -0.2556  0.1333
  133CHL    CL2  790   3.611   3.100   2.404 -0.3182  0.0830  0.2561
  133CHL      H  791   3.430   3.059   2.567  0.0478  0.1103  0.3305
  134CHL     CL  792   3.817   2.666   2.772  0.2805 -0.1189  0.1806
  134CHL      C  793   3.992   2.698   2.776  0.8351 -0.6897  0.3354
  134CHL    CL1  794   4.062   2.645   2.622 -0.0515  0.0170 -0.1749
  134CHL    CL2  795   4.026   2.867   2.828  0.0137  0.1138 -0.1236
  134CHL      H  796   4.032   2.642   2.862 -0.9337 -2.8004 -0.1362
  135CHL     CL  797   0.623   1.576   1.622 -0.2242 -0.0918  0.0399
  135CHL      C  798   0.651   1.659   1.454  0.3613  0.6363 -0.0553
  135CHL    CL1  799   0.529   1.598   1.337 -0.0579  0.2835 -0.6088
  135CHL    CL2  800   0.645   1.836   1.470  0.2342  0.0427 -0.1402
  135CHL      H  801   0.749   1.638   1.411  0.8502  1.3218  0.6912
  136CHL     CL  802   3.405   3.773   1.974  0.1550 -0.0070 -0.0659
  136CHL      C  803   3.357   3.799   1.806 -0.3703 -0.2243 -0.4117
  136CHL    CL1  804   3.301   3.637   1.740 -0.0034  0.4032 -0.0199
  136CHL    CL2  805   3.216   3.917   1.804 -0.2303  0.2392 -0.3351
  136CHL      H  806   3.442   3.844   1.753 -1.0982  0.4243 -1.0493
  137CHL     CL  807   0.012   2.176   3.619  0.0599  0.2747 -0.1992
  137CHL      C  808  -0.053   2.066   3.494 -0.0660 -0.2409 -0.5176
  137CHL    CL1  809  -0.016   2.127   3.330  0.1381 -0.2921  0.1350
  137CHL    CL2  810   0.021   1.902   3.516  0.0430 -0.0990 -0.0862
  137CHL      H  811  -0.162   2.063   3.508 -0.0113 -0.7148 -0.1462
  138CHL     CL  812   1.263   2.910   3.254  0.5154  0.0148  0.0864
  138CHL      C  813   1.152   2.917   3.393  0.2547 -0.0915  0.3144
  138CHL    CL1  814   1.199   2.790   3.512 -0.2750  0.0185 -0.0786
  138CHL    CL2  815   1.140   3.082   3.482  0.4444  0.1427 -0.1745
  138CHL      H  816   1.052   2.891   3.357 -1.3600  3.2266  1.8833
  139CHL     CL  817   1.507   2.212   1.267 -0.2173  0.3129 -0.3091
  139CHL      C  818   1.471   2.315   1.409  0.2586 -0.4737  0.5515
  139CHL    CL1  819   1.601   2.447   1.445  0.2916  0.3028 -0.3380
  139CHL    CL2  820   1.308   2.390   1.399 -0.0186  0.0832 -0.0958
  139CHL      H  821   1.471   2.244   1.492 -0.6031 -1.5785 -0.3711
  140CHL     CL  822   3.548   0.869   3.092 -0.3853  0.0912 -0.1765
  140CHL      C  823   3.545   0.823   2.920  0.3629  0.7839  0.4676
  140CHL    CL1  824   3.498   0.965   2.814  0.0933  0.1309 -0.0629
  140CHL    CL2  825   3.704   0.756   2.874  0.0653 -0.3672  0.2661
  140CHL      H  826   3.462   0.753   2.904  0.7411 -0.0208  1.8597
  141CHL     CL  827   0.492   2.645   1.215  0.1779 -0.3301  0.0931
  141CHL      C  828   0.497   2.519   1.346 -0.1123 -0.0029  0.1902
  141CHL    CL1  829   0.472   2.607   1.496  0.2342 -0.0970 -0.4129
  141CHL    CL2  830   0.375   2.396   1.312  0.3900 -0.0940  0.3502
  141CHL      H  831   0.600   2.481   1.353 -0.6527 -1.4242  0.6929
  142CHL     CL  832   1.049   3.226   1.295 -0.1499  0.2226  0.0221
  142CHL      C  833   1.103   3.137   1.149 -1.0682  0.0865  0.1816
  142CHL    CL1  834   1.026   3.214   1.012  0.2780 -0.1502  0.8078
  142CHL    CL2  835   1.287   3.129   1.143 -0.1698  0.1442 -0.2196
  142CHL      H  836   1.065   3.034   1.152 -1.2014  0.0401 -1.7841
  143CHL     CL  837   2.554   1.268   1.721 -0.0478  0.0916  0.0764
  143CHL      C  838   2.474   1.327   1.574  0.1556  0.0181  0.2192
  143CHL    CL1  839   2.558   1.465   1.495 -0.6014 -0.2911  0.0667
  143CHL    CL2  840   2.450   1.194   1.455 -0.2560  0.2226  0.3139
  143CHL      H  841   2.369   1.354   1.586  0.6314  2.0522  0.0361
  144CHL     CL  842   2.999   0.367   0.480 -0.0534  0.3226  0.4313
  144CHL      C  843   2.976   0.530   0.398 -0.1223 -0.2075 -0.7371
  144CHL    CL1  844   2.989   0.514   0.218 -0.1600  0.1327  0.3284
  144CHL    CL2  845   2.823   0.602   0.453 -0.1908 -0.3363  0.4645
  144CHL      H  846   3.055   0.602   0.424 -0.6670  0.2053 -0.1817
  145CHL     CL  847   0.341   1.201   0.862  0.4190  0.1783  0.4255
  145CHL      C  848   0.305   1.105   0.711  0.1743 -0.6756  0.9117
  145CHL    CL1  849   0.135   1.115   0.675  0.4405 -0.0529  0.1786
  145CHL    CL2  850   0.389   1.162   0.556 -0.1442 -0.3204 -0.6646
  145CHL      H  851   0.324   0.999   0.730 -2.8678 -1.2754  1.0992
  146CHL     CL  852   0.077   1.344   2.015  0.4049 -0.1400 -0.0476
  146CHL      C  853   0.069   1.297   1.840  1.0188  0.2196  0.3798
  146CHL    CL1  854  -0.054   1.167   1.848 -0.1157  0.0796 -0.1928
  146CHL    CL2  855   0.016   1.428   1.724  0.0573 -0.1243  0.0685
  146CHL      H  856   0.165   1.254   1.811 -0.4936 -2.9400 -0.2484
  147CHL     CL  857   0.887   1.192   0.631 -0.6276 -0.5420  0.3539
  147CHL      C  858   0.830   1.336   0.550  0.3290 -0.3078  0.0802
  147CHL    CL1  859   0.750   1.272   0.395  0.4066  0.0335  0.1419
  147CHL    CL2  860   0.706   1.414   0.648  0.2707  0.3678  0.0728
  147CHL      H  861   0.909   1.407   0.523  0.1271  0.0407  0.3952
  148CHL     CL  862   1.344   1.708   0.436 -0.0710  0.1152 -0.1133
  148CHL      C  863   1.262   1.829   0.543  0.7304 -0.1157  0.1429
  148CHL    CL1  864   1.233   1.978   0.451  0.1600 -0.3705  0.0161
  148CHL    CL2  865   1.093   1.776   0.603  0.0259  0.2063  0.1171
  148CHL      H  866   1.321   1.849   0.632  0.7566 -1.7122  0.5194
  149CHL     CL  867   2.114   0.171   0.030  0.0500 -0.0034  0.4039
  149CHL      C  868   2.085   0.348   0.047 -0.1055  0.0838 -0.0069
  149CHL    CL1  869   1.956   0.409  -0.070  0.0687  0.0161 -0.3418
  149CHL    CL2  870   2.045   0.399   0.209 -0.0689  0.0748  0.3096
  149CHL      H  871   2.176   0.405   0.027  0.0986  0.4468  1.8690
  150CHL     CL  872   3.185   1.682   1.875 -0.2310  0.1199  0.5939
  150CHL      C  873   3.097   1.732   1.720 -0.1043 -0.4568 -0.1265
  150CHL    CL1  874   2.932   1.787   1.761  0.1665  0.0917 -0.1006
  150CHL    CL2  875   3.187   1.857   1.634  0.6794 -0.0601  0.1115
  150CHL      H  876   3.087   1.646   1.653 -0.9575 -0.3277 -0.1746
  151CHL     CL  877   1.836   1.197   0.011  0.1783 -0.0405  0.0708
  151CHL      C  878   1.653   1.230   0.011 -0.8542  0.3085  0.2032
  151CHL    CL1  879   1.558   1.136   0.133  0.0504 -0.1971  0.3281
  151CHL    CL2  880   1.628   1.403   0.045 -0.0620 -0.0440  0.1967
  151CHL      H  881   1.622   1.204  -0.091 -0.8193 -0.2204  0.3248
  152CHL     CL  882   1.950   2.332   1.363 -0.1069  0.3339 -0.0301
  152CHL      C  883   2.002   2.361   1.200 -0.1135  0.9414 -0.7038
  152CHL    CL1  884   1.933   2.234   1.094 -0.3092  0.1109  0.1007
  152CHL    CL2  885   1.943   2.516   1.132  0.1541  0.4174 -0.4560
  152CHL      H  886   2.112   2.363   1.202 -0.0088 -0.9433 -2.2550
  153CHL     CL  887   3.083   1.860   3.781  0.1372  0.0337 -0.1281
  153CHL      C  888   2.974   2.006   3.775  0.7394  0.0546  0.6507
  153CHL    CL1  889   3.044   2.134   3.660  0.0922  0.1206 -0.4636
  153CHL    CL2  890   2.803   1.950   3.731 -0.0932  0.3519 -0.1110
  153CHL      H  891   2.965   2.057   3.872 -0.6282  2.5669 -0.6836
  154CHL     CL  892   3.337   3.032   0.226  0.1648  0.0947  0.3056
  154CHL      C  893   3.383   3.210   0.236 -0.2512  0.1067 -0.0969
  154CHL    CL1  894   3.554   3.229   0.194  0.0140 -0.0295  0.3661
  154CHL    CL2  895   3.274   3.320   0.133 -0.2045  0.0472  0.2578
  154CHL      H  896   3.375   3.236   0.342 -1.8084  1.1214 -0.4295
  155CHL     CL  897   1.908   3.592   0.369  0.5745  0.1186 -0.0982
  155CHL      C  898   2.008   3.688   0.477 -1.3300  0.0605 -0.2998
  155CHL    CL1  899   2.180   3.632   0.472 -0.1335 -0.3351 -0.0966
  155CHL    CL2  900   2.002   3.858   0.415 -0.4512  0.5945 -0.1592
  155CHL      H  901   1.968   3.684   0.579  1.2566  0.2821  0.7898
  156CHL     CL  902   1.575   2.423   0.233 -0.1092 -0.3984 -0.1500
  156CHL      C  903   1.431   2.329   0.278 -0.9854 -0.1229  0.0865
  156CHL    CL1  904   1.361   2.226   0.136  0.1234 -0.0608  0.1203
  156CHL    CL2  905   1.475   2.227   0.430  0.2707 -0.0215 -0.2398
  156CHL      H  906   1.352   2.392   0.319 -0.6751  0.8552 -0.7564
  157CHL     CL  907   0.730   3.427   0.470 -0.2762 -0.2537 -0.1783
  157CHL      C  908   0.573   3.364   0.400  0.2222 -0.4764 -0.2053
  157CHL    CL1  909   0.606   3.204   0.312  0.6006 -0.0525 -0.1957
  157CHL    CL2  910   0.458   3.341   0.539  0.0114 -0.2018  0.0848
  157CHL      H  911   0.522   3.434   0.333  1.2853  0.9409  0.3982
  158CHL     CL  912   1.711   0.957   2.293 -0.3462 -0.1962  0.1003
  158CHL      C  913   1.889   0.951   2.259  0.6051 -0.1122  0.3029
  158CHL    CL1  914   1.966   1.093   2.344  0.2885  0.2071  0.1356
  158CHL    CL2  915   1.954   0.798   2.335 -0.3474 -0.4009  0.4153
  158CHL      H  916   1.916   0.955   2.153 -0.4745  0.7494  0.0496
  159CHL     CL  917   2.366   1.631   3.245 -0.1458  0.3692  0.3023
  159CHL      C  918   2.383   1.518   3.097  0.7678  0.5982 -0.1158
  159CHL    CL1  919   2.340   1.343   3.138 -0.2137  0.0555  0.2814
  159CHL    CL2  920   2.280   1.590   2.965  0.5294  0.1709 -0.0989
  159CHL      H  921   2.491   1.525   3.080  1.2186 -0.3924  1.9282
  160CHL     CL  922   3.625   0.716   1.981 -0.1425  0.0941 -0.1335
  160CHL      C  923   3.603   0.854   1.872 -0.0812 -0.3603  0.0386
  160CHL    CL1  924   3.700   0.826   1.721  0.1874  0.0837 -0.2115
  160CHL    CL2  925   3.437   0.877   1.841  0.3384  0.1131  0.3252
  160CHL      H  926   3.642   0.939   1.929 -0.5823  0.0040 -0.1531
  161CHL     CL  927   0.298   1.058   2.032  0.1126 -0.0834 -0.1661
  161CHL      C  928   0.178   0.954   1.943 -0.4039  0.2261 -0.1131
  161CHL    CL1  929   0.200   0.965   1.763  0.0960  0.3936 -0.1079
  161CHL    CL2  930   0.193   0.786   2.014  0.3350 -0.1256 -0.0007
  161CHL      H  931   0.078   0.991   1.967 -0.6418 -0.4210 -0.0883
  162CHL     CL  932   0.679   3.324   2.339  0.0694  0.0450 -0.2335
  162CHL      C  933   0.534   3.243   2.406  0.0571  0.1277 -0.4556
  162CHL    CL1  934   0.423   3.369   2.465  0.0154  0.1148  0.3992
  162CHL    CL2  935   0.462   3.155   2.272  0.1886  0.0645 -0.1367
  162CHL      H  936   0.559   3.173   2.486 -0.8764  0.3628  0.0513
  163CHL     CL  937   1.255   0.167   1.813  0.0794 -0.0961 -0.0448
  163CHL      C  938   1.411   0.244   1.805 -0.4097  0.4955 -0.2670
  163CHL    CL1  939   1.381   0.415   1.844  0.0352  0.1329 -0.4468
  163CHL    CL2  940   1.514   0.159   1.930 -0.3093  0.0742  0.1670
  163CHL      H  941   1.457   0.238   1.705 -0.2392  1.4294 -0.2526
  164CHL     CL  942   2.984   1.698   2.513 -0.4160 -0.1469 -0.0322
  164CHL      C  943   3.141   1.778   2.529 -0.8539  0.1204  0.1055
  164CHL    CL1  944   3.139   1.849   2.692 -0.1237  0.1284 -0.2653
  164CHL    CL2  945   3.280   1.649   2.510  0.1692 -0.3765  0.2254
  164CHL      H  946   3.160   1.860   2.459  0.5027 -1.4113 -1.4135
  165CHL     CL  947   2.048   0.337   3.032  0.2314 -0.1082 -0.0405
  165CHL      C  948   2.085   0.182   3.116  0.5003  0.4228  0.1881
  165CHL    CL1  949   1.986   0.059   3.028 -0.1907 -0.0069 -0.0065
  165CHL    CL2  950   2.268   0.153   3.100 -0.1535  0.2084 -0.2131
  165CHL      H  951   2.058   0.191   3.222  0.8123 -0.1635  0.3240
  166CHL     CL  952   0.408   1.531   0.333 -0.3634 -0.0713 -0.1948
  166CHL      C  953   0.415   1.546   0.149 -0.1385 -0.0791  0.1486
  166CHL    CL1  954   0.551   1.435   0.097 -0.3189 -0.0549  0.2205
  166CHL    CL2  955   0.264   1.487   0.085  0.6727 -0.1952 -0.2680
  166CHL      H  956   0.426   1.651   0.121 -2.4096  0.3987  0.8262
  167CHL     CL  957   3.454   1.411   1.529 -0.1604  0.1190  0.0157
  167CHL      C  958   3.344   1.503   1.418 -0.0055 -0.5102  0.1551
  167CHL    CL1  959   3.174   1.498   1.467 -0.0893 -0.1399  0.1274
  167CHL    CL2  960   3.393   1.672   1.400 -0.2080 -0.7068 -0.1353
  167CHL      H  961   3.347   1.456   1.319 -0.4373  1.1675 -0.7055
  168CHL     CL  962   0.990   2.479   1.852  0.1565 -0.1411 -0.1431
  168CHL      C  963   1.048   2.648   1.846  0.1234 -0.0750  0.0825
  168CHL    CL1  964   0.930   2.746   1.751  0.2856 -0.3660 -0.0484
  168CHL    CL2  965   1.061   2.716   2.016  0.1240  0.3475 -0.0561
  168CHL      H  966   1.149   2.660   1.806 -0.1041 -0.5602 -0.6705
  169CHL     CL  967   0.522   0.421   0.073  0.0026  0.3866  0.3833
  169CHL      C  968   0.700   0.408   0.112 -0.1784  0.3059 -0.1866
  169CHL    CL1  969   0.778   0.574   0.084 -0.0122  0.3195 -0.0865
  169CHL    CL2  970   0.725   0.355   0.280  0.3626 -0.0048  0.0555
  169CHL      H  971   0.750   0.336   0.046 -0.3304 -1.3159  1.3730
  170CHL     CL  972   1.177   3.449   2.216 -0.1932  0.4537 -0.0627
  170CHL      C  973   1.198   3.477   2.037  0.0612  0.0938  0.3637
  170CHL    CL1  974   1.137   3.639   1.996  0.0178  0.0147 -0.1136
  170CHL    CL2  975   1.374   3.468   1.980 -0.1942  0.1983  0.4584
  170CHL      H  976   1.136   3.402   1.986  0.9412 -0.6990  0.4175
  171CHL     CL  977   0.556   0.665   0.389  0.0674 -0.2861 -0.1386
  171CHL      C  978   0.463   0.809   0.341 -0.3161  0.4667  0.3807
  171CHL    CL1  979   0.428   0.807   0.157 -0.6290 -0.2659  0.0559
  171CHL    CL2  980   0.304   0.828   0.428  0.2538  0.1005  0.2233
  171CHL      H  981   0.524   0.899   0.354 -3.2027  2.6075  0.1994
  172CHL     CL  982   2.979   2.863   1.365 -0.1030 -0.1316  0.2515
  172CHL      C  983   2.847   2.941   1.464 -0.2022  0.4052  0.8366
  172CHL    CL1  984   2.890   2.945   1.636 -0.1594  0.1542  0.2642
  172CHL    CL2  985   2.825   3.109   1.405  0.4572  0.5749  0.4902
  172CHL      H  986   2.752   2.889   1.445  0.7563 -1.0381 -0.2979
  173CHL     CL  987   0.281   1.630   2.986 -0.1543 -0.5070  0.4717
  173CHL      C  988   0.244   1.510   2.860 -0.0465 -0.0725 -0.4911
  173CHL    CL1  989   0.161   1.367   2.935  0.2057  0.0732  0.4057
  173CHL    CL2  990   0.139   1.582   2.746 -0.2013  0.2737  0.1454
  173CHL      H  991   0.328   1.479   2.796 -0.2261  2.5309 -2.1259
  174CHL     CL  992   0.230   3.441   0.060  0.5006  0.0074  0.2310
  174CHL      C  993   0.082   3.454   0.158  0.3288 -0.3868 -0.3434
  174CHL    CL1  994   0.095   3.378   0.325 -0.5661  0.2871  0.1107
  174CHL    CL2  995   0.026   3.615   0.178 -0.0906  0.2835 -0.0040
  174CHL      H  996   0.008   3.397   0.102  0.7684  1.2543 -2.7256
  175CHL     CL  997   0.059   2.474   1.634  0.0121  0.2558  0.1442
  175CHL      C  998  -0.041   2.624   1.627 -0.1641  0.6108 -0.2182
  175CHL    CL1  999  -0.071   2.691   1.792 -0.1163  0.3170 -0.1128
  175CHL    CL2 1000   0.021   2.756   1.516  0.3781 -0.2569  0.0542
  175CHL      H 1001  -0.138   2.595   1.586  0.7308 -2.0509 -0.6454
  176CHL     CL 1002   1.513   0.024   0.208 -0.0116  0.2097 -0.3565
  176CHL      C 1003   1.606   0.177   0.249  0.2502 -0.1438  0.6393
  176CHL    CL1 1004   1.673   0.163   0.414  0.1173 -0.2782  0.3417
  176CHL    CL2 1005   1.732   0.196   0.120 -0.3360 -0.5257  0.0617
  176CHL      H 1006   1.543   0.264   0.231 -0.0526 -0.5477 -0.3336
  177CHL     CL 1007   3.005   1.079   2.951  0.2795  0.1328  0.5033
  177CHL      C 1008   3.079   0.918   2.987  0.8996 -0.7159  0.4795
  177CHL    CL1 1009   2.951   0.806   3.011  0.2628 -0.2565  0.4100
  177CHL    CL2 1010   3.166   0.866   2.837  0.3743  0.1452 -0.2128
  177CHL      H 1011   3.141   0.911   3.077  1.9982  0.1134 -0.1892
  178CHL     CL 1012   1.696   3.642   2.956  0.1318 -0.0086  0.0495
  178CHL      C 1013   1.773   3.538   3.081  0.8312 -0.1328 -0.1207
  178CHL    CL1 1014   1.673   3.392   3.117  0.4487 -0.1279  0.2039
  178CHL    CL2 1015   1.934   3.478   3.022 -0.0663 -0.2009 -0.0935
  178CHL      H 1016   1.797   3.599   3.169  0.5896 -0.9897  0.5622
  179CHL     CL 1017   0.757   3.073   0.036 -0.3691 -0.0718 -0.1445
  179CHL      C 1018   0.814   3.063  -0.129  0.7742 -0.7477  0.7675
  179CHL    CL1 1019   0.693   2.964  -0.208 -0.4688  0.2780  0.3908
  179CHL    CL2 1020   0.812   3.226  -0.196 -0.1590  0.1272  0.1232
  179CHL      H 1021   0.905   3.003  -0.140 -1.4846 -4.2865 -0.1531
  180CHL     CL 1022   1.294   1.345   0.185  0.0443  0.4837 -0.4369
  180CHL      C 1023   1.316   1.359   0.359  0.2854  0.3380  0.5640
  180CHL    CL1 1024   1.157   1.382   0.431 -0.1299 -0.0722  0.2027
  180CHL    CL2 1025   1.398   1.220   0.429 -0.1466 -0.1186  0.2166
  180CHL      H 1026   1.370   1.450   0.386 -3.5938  2.5006  1.8842
  181CHL     CL 1027   0.342   1.432   3.576 -0.2018  0.3140 -0.4072
  181CHL      C 1028   0.216   1.443   3.451  0.1874 -0.4323  0.1925
  181CHL    CL1 1029   0.087   1.564   3.483  0.6984 -0.1511  0.3198
  181CHL    CL2 1030   0.291   1.477   3.294  0.2617 -0.1193  0.0873
  181CHL      H 1031   0.169   1.345   3.439 -1.3517  0.3727 -0.6870
  182CHL     CL 1032   2.647   1.431   3.436  0.2544 -0.0054  0.1671
  182CHL      C 1033   2.632   1.611   3.445  0.3674 -0.5201  0.3623
  182CHL    CL1 1034   2.706   1.666   3.596 -0.0330  0.3257 -0.0706
  182CHL    CL2 1035   2.712   1.695   3.299  0.0033  0.1701  0.2293
  182CHL      H 1036   2.527   1.643   3.439 -0.1667 -2.0310  1.0210
  183CHL     CL 1037   2.210   3.010   0.856 -0.3890  0.0059 -0.1483
  183CHL      C 1038   2.090   3.016   0.994  0.9474  0.1237  0.3840
  183CHL    CL1 1039   2.049   2.841   1.040  0.2964  0.0724 -0.1631
  183CHL    CL2 1040   2.155   3.105   1.132 -0.1457  0.6746  0.0521
  183CHL      H 1041   1.999   3.058   0.952 -0.0993 -1.8010  0.6171
  184CHL     CL 1042   1.845   1.533   0.952  0.0446 -0.1385  0.0466
  184CHL      C 1043   1.824   1.363   0.995 -0.3523  0.5650 -0.0687
  184CHL    CL1 1044   1.656   1.316   0.962 -0.1134 -0.6764 -0.1183
  184CHL    CL2 1045   1.945   1.262   0.897  0.0254  0.1861  0.0809
  184CHL      H 1046   1.837   1.350   1.103  1.5822 -0.7982 -0.4037
  185CHL     CL 1047   1.454   2.679   0.499  0.3247 -0.2001 -0.0768
  185CHL      C 1048   1.604   2.753   0.433 -0.4314 -0.4257 -0.4244
  185CHL    CL1 1049   1.588   2.906   0.327  0.1083 -0.3487  0.0006
  185CHL    CL2 1050   1.701   2.802   0.576  0.1506  0.1235 -0.0308
  185CHL      H 1051   1.668   2.680   0.382 -0.1989  0.0680 -0.8490
  186CHL     CL 1052   0.266   3.693   0.785  0.0143 -0.3348 -0.0008
  186CHL      C 1053   0.118   3.798   0.750  0.1418  0.6751 -0.1547
  186CHL    CL1 1054   0.076   3.797   0.578 -0.4340 -0.2867  0.1246
  186CHL    CL2 1055  -0.026   3.754   0.848 -0.0505 -0.1307  0.1242
  186CHL      H 1056   0.129   3.905   0.773 -0.3552  0.7409 -0.2093
  187CHL     CL 1057   2.745   1.084   0.113  0.4128 -0.1967  0.1822
  187CHL      C 1058   2.796   1.230   0.026  0.1078 -0.1487 -0.1787
  187CHL    CL1 1059   2.916   1.173  -0.091  0.3740 -0.0065 -0.2525
  187CHL    CL2 1060   2.644   1.299  -0.053  0.2545  0.1340  0.5533
  187CHL      H 1061   2.834   1.303   0.099  0.9161 -1.5429  0.8458
  188CHL     CL 1062   0.007   1.960   0.627 -0.0921 -0.0055  0.0722
  188CHL      C 1063  -0.085   2.013   0.773  0.7907 -0.1467 -0.0364
  188CHL    CL1 1064  -0.164   2.170   0.750  0.0643 -0.3541 -0.1376
  188CHL    CL2 1065  -0.212   1.895   0.822  0.7941  0.1334  0.4206
  188CHL      H 1066  -0.015   2.019   0.857 -2.2842  2.7073  2.6455
  189CHL     CL 1067   2.250   0.576   0.818  0.1140  0.3094 -0.0971
  189CHL      C 1068   2.100   0.490   0.859  0.1438  0.8972  0.5955
  189CHL    CL1 1069   2.115   0.358   0.978  0.1092 -0.0418 -0.2300
  189CHL    CL2 1070   1.978   0.603   0.915  0.1164 -0.0241 -0.2220
  189CHL      H 1071   2.071   0.445   0.764  2.5931 -0.1410  0.2550
  190CHL     CL 1072   3.814   0.592   3.421  0.3681  0.3756 -0.0754
  190CHL      C 1073   3.700   0.726   3.453  0.3113  0.2214 -0.6263
  190CHL    CL1 1074   3.609   0.681   3.607 -0.4898 -0.1335 -0.0099
  190CHL    CL2 1075   3.779   0.885   3.468 -0.4279 -0.0858 -0.0444
  190CHL      H 1076   3.620   0.730   3.379 -1.1315 -1.8928  0.7247
  191CHL     CL 1077   3.377   2.701   0.230  0.3853 -0.1223  0.2807
  191CHL      C 1078   3.545   2.778   0.261  0.0521  0.2172 -0.1142
  191CHL    CL1 1079   3.556   2.815   0.438  0.3380  0.4612 -0.0826
  191CHL    CL2 1080   3.689   2.674   0.224  0.0639 -0.1877 -0.1936
  191CHL      H 1081   3.554   2.875   0.211 -2.0231  0.8581  0.6378
  192CHL     CL 1082   0.045   1.959   0.182 -0.1860  0.0800 -0.0392
  192CHL      C 1083   0.034   2.117   0.275  0.7394  0.2544 -0.2674
  192CHL    CL1 1084   0.183   2.142   0.363  0.0175  0.4001  0.0956
  192CHL    CL2 1085   0.006   2.257   0.164  0.4179 -0.2486  0.0350
  192CHL      H 1086  -0.053   2.105   0.340 -2.1998  0.0034 -3.8482
  193CHL     CL 1087   2.074   1.957   0.683  0.2689 -0.0878 -0.0882
  193CHL      C 1088   2.161   2.068   0.791  0.0432  0.8291 -0.3751
  193CHL    CL1 1089   2.222   1.971   0.937 -0.2306  0.0989  0.4019
  193CHL    CL2 1090   2.282   2.164   0.710  0.1452 -0.3220 -0.1484
  193CHL      H 1091   2.087   2.136   0.835  0.3371 -0.8599  3.0223
  194CHL     CL 1092   3.483   3.632   2.712 -0.2082  0.6612  0.0881
  194CHL      C 1093   3.386   3.480   2.708 -0.9925  0.4807  0.1032
  194CHL    CL1 1094   3.210   3.526   2.737  0.3560 -0.2042  0.1402
  194CHL    CL2 1095   3.378   3.383   2.549 -0.2149  0.2948 -0.3819
  194CHL      H 1096   3.430   3.413   2.782 -0.5458  0.0467 -0.5437
  195CHL     CL 1097   2.024   0.923   1.019 -0.1692  0.0614 -0.2852
  195CHL      C 1098   2.205   0.940   1.051  0.1193 -0.3886 -0.0875
  195CHL    CL1 1099   2.272   1.108   1.009 -0.4138  0.5000  0.3238
  195CHL    CL2 1100   2.244   0.921   1.231  0.2919 -0.1876 -0.0905
  195CHL      H 1101   2.265   0.871   0.991 -0.0739  1.7490 -2.9487
  196CHL     CL 1102   0.504   3.256   0.874  0.4847  0.0664  0.4216
  196CHL      C 1103   0.394   3.364   0.970 -0.8125 -0.0953 -0.0826
  196CHL    CL1 1104   0.237   3.352   0.884 -0.0661 -0.2671 -0.1280
  196CHL    CL2 1105   0.373   3.287   1.130 -0.0998  0.0591 -0.0338
  196CHL      H 1106   0.428   3.468   0.973  0.0828 -0.3361 -1.0415
  197CHL     CL 1107   0.143   0.529   0.164 -0.5530  0.0507  0.1795
  197CHL      C 1108   0.051   0.616   0.038  0.4902  0.3846 -0.5483
  197CHL    CL1 1109  -0.070   0.725   0.121 -0.0603 -0.0950 -0.2574
  197CHL    CL2 1110   0.151   0.719  -0.061  0.0052 -0.3334 -0.1129
  197CHL      H 1111   0.006   0.542  -0.028 -1.1460  0.4885  0.3955
  198CHL     CL 1112   1.162   2.230   2.987 -0.0187  0.3430  0.3029
  198CHL      C 1113   1.339   2.258   2.925 -0.2038  0.0477  0.6655
  198CHL    CL1 1114   1.366   2.418   2.861 -0.7069 -0.1941  0.0785
  198CHL    CL2 1115   1.446   2.212   3.059  0.2721 -0.4573 -0.4002
  198CHL      H 1116   1.362   2.195   2.838  1.2466  2.3989 -0.7796
  199CHL     CL 1117   1.264   0.672   1.354  0.1130 -0.2317  0.1131
  199CHL      C 1118   1.096   0.746   1.315 -0.5268 -0.5278  0.5212
  199CHL    CL1 1119   1.052   0.869   1.448  0.0229  0.1115  0.1609
  199CHL    CL2 1120   1.103   0.850   1.179  0.0218  0.1849  0.0869
  199CHL      H 1121   1.020   0.669   1.298 -1.0763 -0.1305  1.1232
  200CHL     CL 1122   0.398   3.710   2.742 -0.2800 -0.0631 -0.2399
  200CHL      C 1123   0.244   3.743   2.649 -0.3558  0.0508 -0.6640
  200CHL    CL1 1124   0.118   3.647   2.742 -0.2449 -0.5582  0.1642
  200CHL    CL2 1125   0.210   3.921   2.653 -0.2198  0.0622 -0.0540
  200CHL      H 1126   0.250   3.715   2.543  0.9303 -1.1410 -0.3004
  201CHL     CL 1127   3.179   3.812   0.671 -0.3458  0.0733 -0.0549
  201CHL      C 1128   3.051   3.859   0.784  0.0436 -0.8269 -0.0515
  201CHL    CL1 1129   2.890   3.871   0.695  0.4242 -0.1073 -0.0727
  201CHL    CL2 1130   3.053   3.749   0.923 -0.1823 -0.0440  0.3172
  201CHL      H 1131   3.074   3.954   0.832 -1.4301 -1.5011  2.1460
  202CHL     CL 1132   1.989   0.413   3.411  0.1545 -0.0785  0.0720
  202CHL      C 1133   2.128   0.526   3.418  0.0548  0.6493 -0.0412
  202CHL    CL1 1134   2.216   0.482   3.564  0.2563 -0.3059  0.3705
  202CHL    CL2 1135   2.238   0.518   3.273  0.2183 -0.2796 -0.3379
  202CHL      H 1136   2.091   0.629   3.427 -0.9500  0.7113 -3.3220
  203CHL     CL 1137   2.663   0.288   1.806  0.2326 -0.4770 -0.1384
  203CHL      C 1138   2.737   0.170   1.698 -0.7795  0.4855 -0.4129
  203CHL    CL1 1139   2.809   0.262   1.559 -0.2227  0.1274 -0.0776
  203CHL    CL2 1140   2.862   0.073   1.790 -0.1015 -0.3466 -0.4932
  203CHL      H 1141   2.668   0.093   1.660 -0.4766 -0.3746  0.7320
  204CHL     CL 1142   1.168   2.576   0.600  0.0766  0.4671  0.0377
  204CHL      C 1143   1.052   2.466   0.508  0.1705 -0.2154  0.3005
  204CHL    CL1 1144   1.031   2.536   0.355  0.3204  0.1642  0.0873
  204CHL    CL2 1145   1.116   2.300   0.495 -0.2436  0.1053 -0.1955
  204CHL      H 1146   0.956   2.456   0.560 -1.5416  0.5799 -2.5089
  205CHL     CL 1147   0.618   2.498   2.617 -0.3551 -0.2568  0.2841
  205CHL      C 1148   0.780   2.486   2.692  0.1314  0.6637 -0.2473
  205CHL    CL1 1149   0.860   2.325   2.663 -0.0108 -0.1944  0.2089
  205CHL    CL2 1150   0.876   2.618   2.624  0.1486  0.0616  0.1886
  205CHL      H 1151   0.777   2.495   2.801  4.7171 -2.1983  0.3763
  206CHL     CL 1152   2.144   3.006   1.913 -0.0610  0.2947 -0.4406
  206CHL      C 1153   2.053   2.864   1.832  0.5694 -0.6460 -0.0218
  206CHL    CL1 1154   2.170   2.768   1.748  0.1159  0.0559 -0.2386
  206CHL    CL2 1155   1.964   2.766   1.960 -0.4008  0.0962 -0.1768
  206CHL      H 1156   1.987   2.911   1.758  1.0896  2.0516  1.1036
  207CHL     CL 1157   3.594   1.972   3.000  0.2827 -0.0642  0.0209
  207CHL      C 1158   3.613   1.847   2.875 -1.0111  0.5233  0.0733
  207CHL    CL1 1159   3.502   1.894   2.742 -0.0718 -0.1474  0.1597
  207CHL    CL2 1160   3.784   1.847   2.819 -0.0135 -0.0285  0.1198
  207CHL      H 1161   3.596   1.743   2.907  1.6970 -0.0149 -0.0284
  208CHL     CL 1162   3.792   1.573   0.342 -0.2878 -0.1065  0.2682
  208CHL      C 1163   3.871   1.572   0.513 -0.5837 -0.4393  0.0211
  208CHL    CL1 1164   4.015   1.686   0.523 -0.1303 -0.0624 -0.5015
  208CHL    CL2 1165   3.737   1.606   0.638  0.2492 -0.4140 -0.1975
  208CHL      H 1166   3.916   1.473   0.527 -3.2606 -1.5574  1.4223
  209CHL     CL 1167   0.948   2.619   0.842  0.0307 -0.4122 -0.0380
  209CHL      C 1168   1.043   2.631   0.993  0.7030 -0.6826  0.7051
  209CHL    CL1 1169   1.096   2.804   1.022  0.1036  0.1195  0.0962
  209CHL    CL2 1170   0.953   2.568   1.133  0.3291  0.0624  0.0467
  209CHL      H 1171   1.132   2.567   0.984  0.8961 -0.6991  2.4753
  210CHL     CL 1172   2.945   1.658   2.094 -0.1840 -0.1582  0.0065
  210CHL      C 1173   2.784   1.584   2.096 -0.8281  0.4508 -0.4057
  210CHL    CL1 1174   2.672   1.711   2.111 -0.0338 -0.5506 -0.1635
  210CHL    CL2 1175   2.759   1.513   1.947  0.0996 -0.6170  0.2400
  210CHL      H 1176   2.773   1.510   2.176 -0.5999 -0.1960 -0.9647
  211CHL     CL 1177   0.059   1.088   0.111  0.0326  0.1462 -0.4538
  211CHL      C 1178   0.020   1.251   0.041 -0.3339 -0.2910 -0.2354
  211CHL    CL1 1179   0.050   1.257  -0.135 -0.3823 -0.1991 -0.1682
  211CHL    CL2 1180  -0.143   1.314   0.086  0.2814 -0.1621  0.3016
  211CHL      H 1181   0.103   1.307   0.086 -0.7869  0.1909  0.0007
  212CHL     CL 1182   3.628   0.218   2.937 -0.4746 -0.1719  0.0904
  212CHL      C 1183   3.656   0.397   2.904  0.5152 -0.1140  0.0835
  212CHL    CL1 1184   3.510   0.465   2.820  0.0582 -0.3745  0.5630
  212CHL    CL2 1185   3.673   0.492   3.052 -0.1441  0.0125  0.0537
  212CHL      H 1186   3.743   0.414   2.840  1.2170  1.1538  1.3137
  213CHL     CL 1187   2.405   1.201   0.587  0.1612  0.1031 -0.0389
  213CHL      C 1188   2.492   1.248   0.734 -0.1432  0.7855  0.0844
  213CHL    CL1 1189   2.638   1.343   0.678  0.0155  0.6847 -0.1032
  213CHL    CL2 1190   2.385   1.361   0.833  0.4160  0.2606 -0.1040
  213CHL      H 1191   2.531   1.162   0.790  0.1679  0.6792 -0.2826
  214CHL     CL 1192   0.209   3.190   1.798 -0.2267  0.3990  0.0064
  214CHL      C 1193   0.247   3.052   1.903 -0.0846 -0.4878  0.5759
  214CHL    CL1 1194   0.425   3.030   1.904 -0.0978  0.1131  0.3478
  214CHL    CL2 1195   0.180   3.102   2.053 -0.3439  0.1353 -0.4343
  214CHL      H 1196   0.200   2.960   1.867  1.6650 -0.9667 -0.6271
  215CHL     CL 1197   2.128   0.900   0.117 -0.3191 -0.1315  0.0435
  215CHL      C 1198   2.108   0.752   0.021  0.2573  0.2065 -0.4461
  215CHL    CL1 1199   2.048   0.799  -0.141 -0.2142  0.1303  0.3621
  215CHL    CL2 1200   2.252   0.662   0.016 -0.1164 -0.0391 -0.1918
  215CHL      H 1201   2.022   0.701   0.066 -0.5401  1.2473 -0.7582
  216CHL     CL 1202   0.741   0.980   1.150 -0.1951 -0.6384 -0.3300
  216CHL      C 1203   0.601   1.022   1.042  0.3615 -0.3954 -0.3770
  216CHL    CL1 1204   0.659   1.052   0.872 -0.4106  0.1178  0.1676
  216CHL    CL2 1205   0.484   0.887   1.044 -0.1858 -0.0307 -0.2055
  216CHL      H 1206   0.548   1.109   1.081  3.7735  2.1344 -1.0340
  217CHL     CL 1207   3.283   0.305   2.061  0.0137 -0.1626  0.1782
  217CHL      C 1208   3.400   0.441   2.059 -0.4113  0.3489 -0.7978
  217CHL    CL1 1209   3.321   0.606   2.086  0.1293 -0.3568 -0.7522
  217CHL    CL2 1210   3.527   0.424   2.185 -0.1368  0.1760 -0.2031
  217CHL      H 1211   3.454   0.445   1.964  2.0093  0.1029  0.4911
  218CHL     CL 1212   3.415   0.197   0.133 -0.2967 -0.4943  0.0443
  218CHL      C 1213   3.589   0.237   0.163  0.6631  0.5132  0.3112
  218CHL    CL1 1214   3.645   0.390   0.099 -0.0372  0.3631 -0.2511
  218CHL    CL2 1215   3.614   0.251   0.339 -0.2449 -0.5365 -0.1318
  218CHL      H 1216   3.654   0.158   0.124  1.3021  0.4494  1.4522
  219CHL     CL 1217   3.382   0.422   2.493 -0.3926  0.2359  0.1153
  219CHL      C 1218   3.299   0.575   2.514  0.5589 -0.5606  0.4361
  219CHL    CL1 1219   3.191   0.561   2.657  0.1377 -0.3196  0.1227
  219CHL    CL2 1220   3.416   0.708   2.553 -0.2764  0.1024  0.0437
  219CHL      H 1221   3.239   0.602   2.426  1.4979  0.0664 -0.0338
  220CHL     CL 1222   2.065   1.826   2.158  0.4033 -0.2834  0.0947
  220CHL      C 1223   1.916   1.866   2.056 -0.1550 -0.4330  0.3411
  220CHL    CL1 1224   1.957   1.952   1.899  0.3698  0.3966  0.1140
  220CHL    CL2 1225   1.820   1.715   2.032  0.1557 -0.0352 -0.2771
  220CHL      H 1226   1.859   1.935   2.119 -1.5779 -2.5647  1.5240
  221CHL     CL 1227   3.084   1.175   0.657  0.1788  0.0571 -0.4765
  221CHL      C 1228   3.086   1.268   0.811  0.3907 -0.0299  0.0528
  221CHL    CL1 1229   3.254   1.263   0.893 -0.0493  0.1338  0.1252
  221CHL    CL2 1230   3.024   1.434   0.790  0.1679  0.2441 -0.2070
  221CHL      H 1231   3.025   1.210   0.881 -0.5357  0.7373 -0.1104
  222CHL     CL 1232   2.821   2.510   1.907 -0.0633 -0.1999 -0.1726
  222CHL      C 1233   2.874   2.469   1.738 -0.0978  0.2742  0.2393
  222CHL    CL1 1234   2.986   2.597   1.672  0.1547  0.2033 -0.4775
  222CHL    CL2 1235   2.956   2.300   1.741  0.0855  0.0734  0.4697
  222CHL      H 1236   2.787   2.463   1.672 -0.6634  0.3537  0.9711
  223CHL     CL 1237   0.484   0.534   2.472 -0.1980 -0.1337  0.1507
  223CHL      C 1238   0.477   0.716   2.460  0.0968  0.4497 -0.5907
  223CHL    CL1 1239   0.313   0.768   2.392  0.1002 -0.2638  0.0858
  223CHL    CL2 1240   0.523   0.800   2.623  0.4417  0.3661  0.1529
  223CHL      H 1241   0.547   0.753   2.385  1.8125 -1.1390  0.1607
  224CHL     CL 1242   0.619   2.547   1.802 -0.3205  0.0467  0.0770
  224CHL      C 1243   0.550   2.498   1.960  0.1557  0.5524 -0.3902
  224CHL    CL1 1244   0.369   2.482   1.949 -0.4876  0.0691 -0.1222
  224CHL    CL2 1245   0.631   2.347   2.008 -0.1580 -0.0174 -0.0655
  224CHL      H 1246   0.576   2.577   2.032 -0.4369 -1.2320  1.8798
  225CHL     CL 1247   2.374   2.647   0.919 -0.0264  0.0208  0.1167
  225CHL      C 1248   2.383   2.465   0.874 -0.8290 -0.9674 -0.6114
  225CHL    CL1 1249   2.560   2.410   0.895 -0.0666 -0.0775 -0.5859
  225CHL    CL2 1250   2.276   2.368   0.976 -0.2062  0.0927  0.1732
  225CHL      H 1251   2.349   2.467   0.770 -1.2329  1.4505 -0.4983
  226CHL     CL 1252   2.881   0.370   3.422 -0.1232  0.4136  0.1522
  226CHL      C 1253   2.721   0.453   3.396  0.6232  0.3166 -0.0739
  226CHL    CL1 1254   2.681   0.561   3.539  0.0042  0.2659  0.1793
  226CHL    CL2 1255   2.713   0.542   3.244  0.5265 -0.2028 -0.6255
  226CHL      H 1256   2.641   0.378   3.396 -0.3224  1.2934 -0.8151
  227CHL     CL 1257   1.651   1.400   1.874 -0.1431 -0.1733  0.1232
  227CHL      C 1258   1.547   1.356   2.010  0.0631  0.0354  0.4432
  227CHL    CL1 1259   1.421   1.236   1.962 -0.0528 -0.1322  0.2635
  227CHL    CL2 1260   1.654   1.289   2.132 -0.3084 -0.0086 -0.0719
  227CHL      H 1261   1.498   1.450   2.039 -0.5697  0.8166 -2.6790
  228CHL     CL 1262   1.608   0.052   0.901 -0.0153  0.2919 -0.0111
  228CHL      C 1263   1.723   0.113   0.782  0.2902 -0.6530 -0.4522
  228CHL    CL1 1264   1.824   0.250   0.851 -0.4392 -0.3749 -0.3230
  228CHL    CL2 1265   1.833  -0.021   0.747 -0.2919  0.5335  0.2904
  228CHL      H 1266   1.678   0.143   0.687  0.0221 -0.4801 -0.2758
  229CHL     CL 1267   1.894   2.908   0.163  0.1243  0.4757  0.3823
  229CHL      C 1268   1.904   2.774   0.026 -0.0618 -0.0329  0.3777
  229CHL    CL1 1269   2.027   2.637   0.082 -0.2216 -0.1700 -0.1584
  229CHL    CL2 1270   1.744   2.707  -0.024 -0.1661  0.0921 -0.3778
  229CHL      H 1271   1.943   2.829  -0.060 -0.9164 -0.0977 -0.0625
  230CHL     CL 1272   0.609   1.767   2.011 -0.1674  0.0297  0.0223
  230CHL      C 1273   0.468   1.696   1.938 -0.0517 -0.8044 -0.0351
  230CHL    CL1 1274   0.452   1.522   1.992  0.0613 -0.4020 -0.1911
  230CHL    CL2 1275   0.330   1.783   2.001  0.3283  0.4760 -0.3483
  230CHL      H 1276   0.466   1.714   1.830 -0.6180  0.4574  0.1626
  231CHL     CL 1277   0.322   0.182   3.291  0.0058  0.0222  0.2446
  231CHL      C 1278   0.286   0.223   3.113  0.0128 -0.0390 -0.2186
  231CHL    CL1 1279   0.218   0.082   3.026  0.2488 -0.1184 -0.2392
  231CHL    CL2 1280   0.166   0.359   3.104  0.0195  0.3095 -0.0831
  231CHL      H 1281   0.379   0.256   3.066 -0.7536  1.2723 -0.8612
  232CHL     CL 1282   1.954   2.487   2.360  0.4059 -0.0798  0.4637
  232CHL      C 1283   2.010   2.327   2.304  0.4902  0.2965 -0.3400
  232CHL    CL1 1284   1.875   2.228   2.240 -0.3861  0.0113  0.1710
  232CHL    CL2 1285   2.120   2.346   2.166  0.5479  0.2103 -0.1171
  232CHL      H 1286   2.055   2.279   2.391 -0.6288 -0.7500 -0.3079
  233CHL     CL 1287   1.087   0.552   1.991  0.0398  0.1792  0.3283
  233CHL      C 1288   1.091   0.618   1.825 -0.6438 -1.2521 -0.6100
  233CHL    CL1 1289   0.951   0.555   1.727 -0.1506  0.3266  0.1994
  233CHL    CL2 1290   1.094   0.798   1.821  0.0436 -0.0141  0.1720
  233CHL      H 1291   1.182   0.586   1.773 -1.2228 -1.0143 -1.7995
  234CHL     CL 1292   0.424   0.437   2.113 -0.2198  0.1987 -0.5861
  234CHL      C 1293   0.589   0.394   2.069 -0.4596 -0.2668  0.2380
  234CHL    CL1 1294   0.681   0.346   2.217  0.4032  0.2065 -0.1910
  234CHL    CL2 1295   0.594   0.277   1.936 -0.0408  0.1171 -0.1828
  234CHL      H 1296   0.633   0.485   2.028  0.3194 -0.3032  0.9764
  235CHL     CL 1297   3.153   2.264   0.649 -0.4071 -0.3836 -0.3808
  235CHL      C 1298   2.992   2.353   0.640 -0.4377  0.5166  0.0024
  235CHL    CL1 1299   2.993   2.466   0.504  0.3986 -0.0971 -0.2499
  235CHL    CL2 1300   2.861   2.232   0.616  0.4226  0.0769  0.1188
  235CHL      H 1301   2.973   2.401   0.737 -4.1313 -1.4787  0.4227
  236CHL     CL 1302   1.219   2.094   3.576  0.2433 -0.0408  0.5424
  236CHL      C 1303   1.124   2.022   3.706 -0.2066 -0.3641 -0.0406
  236CHL    CL1 1304   0.962   2.098   3.685  0.2772 -0.0145  0.5186
  236CHL    CL2 1305   1.128   1.838   3.682 -0.3349  0.1585 -0.0317
  236CHL      H 1306   1.168   2.054   3.801  0.6045  1.8620 -1.0727
  237CHL     CL 1307   2.802   1.217   1.364  0.4301 -0.0507 -0.3268
  237CHL      C 1308   2.813   1.362   1.269  0.0398 -0.0108  0.4592
  237CHL    CL1 1309   2.968   1.359   1.165 -0.0578 -0.3702  0.0428
  237CHL    CL2 1310   2.669   1.375   1.161 -0.1550  0.1230  0.0285
  237CHL      H 1311   2.827   1.444   1.340  1.6647 -0.2264  0.4112
  238CHL     CL 1312   1.978   0.744   3.172 -0.2724  0.1423 -0.0671
  238CHL      C 1313   1.917   0.915   3.154  0.1229  0.1555 -0.7943
  238CHL    CL1 1314   1.929   0.995   3.316 -0.0320 -0.2748 -0.1060
  238CHL    CL2 1315   2.000   1.002   3.028 -0.1660 -0.0732 -0.2562
  238CHL      H 1316   1.810   0.911   3.133 -0.1445  2.6148 -0.2666
  239CHL     CL 1317   2.736   2.463   2.854 -0.1091  0.0763  0.1869
  239CHL      C 1318   2.562   2.468   2.906 -0.1768 -0.1144 -0.4001
  239CHL    CL1 1319   2.468   2.342   2.821 -0.3210 -0.3010  0.1247
  239CHL    CL2 1320   2.572   2.429   3.081 -0.2610 -0.1984  0.6475
  239CHL      H 1321   2.514   2.566   2.900  1.0008  1.1387  5.1268
  240CHL     CL 1322   1.748   0.375   2.118  0.4079 -0.1944  0.2298
  240CHL      C 1323   1.911   0.305   2.104  1.3315 -0.0871  0.4504
  240CHL    CL1 1324   2.047   0.432   2.138  0.0616 -0.4484  0.2151
  240CHL    CL2 1325   1.925   0.162   2.211 -0.2154  0.2694  0.1774
  240CHL      H 1326   1.927   0.266   2.003 -2.2748 -1.5555  0.2787
  241CHL     CL 1327   2.842   3.484   2.794  0.2498 -0.2058 -0.0516
  241CHL      C 1328   2.707   3.389   2.746 -0.3135  0.1652 -0.1422
  241CHL    CL1 1329   2.724   3.216   2.805  0.1369  0.1984  0.0615
  241CHL    CL2 1330   2.566   3.469   2.827  0.0841 -0.0161 -0.3556
  241CHL      H 1331   2.697   3.388   2.637  0.9995 -1.2267 -0.2796
  242CHL     CL 1332   0.802   1.500   2.982 -0.0375  0.3246 -0.0617
  242CHL      C 1333   0.631   1.521   2.937  0.4418 -0.1783  1.3684
  242CHL    CL1 1334   0.626   1.615   2.778  0.0945 -0.1445 -0.1219
  242CHL    CL2 1335   0.557   1.358   2.924  0.2640  0.2016  0.3624
  242CHL      H 1336   0.578   1.593   2.999 -3.7163 -0.3267 -1.5781
  243CHL     CL 1337   1.520   3.533   0.164 -1.0584 -0.1808  0.2241
  243CHL      C 1338   1.478   3.422   0.038  0.2328  0.3629 -0.1729
  243CHL    CL1 1339   1.488   3.257   0.115  0.1184  0.1668  0.2133
  243CHL    CL2 1340   1.325   3.442  -0.043  0.2024 -0.2644  0.3200
  243CHL      H 1341   1.548   3.430  -0.046 -0.6114  1.0969 -0.8257
  244CHL     CL 1342   1.665   0.494   0.292  0.1780 -0.1215  0.3723
  244CHL      C 1343   1.623   0.625   0.181  0.3156 -0.2622  0.7341
  244CHL    CL1 1344   1.490   0.730   0.245 -0.0184  0.0114  0.3575
  244CHL    CL2 1345   1.769   0.714   0.141  0.0273  0.0991  0.3003
  244CHL      H 1346   1.593   0.574   0.088 -0.1840 -0.3688  0.9520
  245CHL     CL 1347   1.875   3.214   0.452  0.4241 -0.0749  0.5212
  245CHL      C 1348   1.727   3.218   0.569  0.0350 -0.8113 -0.1918
  245CHL    CL1 1349   1.750   3.097   0.692  0.0582 -0.1460  0.0510
  245CHL    CL2 1350   1.705   3.387   0.640 -0.4279  0.1351  0.0228
  245CHL      H 1351   1.631   3.200   0.519 -1.0953  2.1022  0.7120
  246CHL     CL 1352   2.461   2.591   2.565  0.1265  0.3652 -0.0874
  246CHL      C 1353   2.289   2.596   2.617 -0.1264 -0.2515  0.8677
  246CHL    CL1 1354   2.204   2.714   2.506 -0.1543  0.0246  0.0796
  246CHL    CL2 1355   2.224   2.431   2.604  0.0069 -0.6240 -0.1575
  246CHL      H 1356   2.275   2.636   2.718  1.1269  1.5910  0.3747
  247CHL     CL 1357   3.531   3.372   2.163 -0.2843  0.6601  0.3087
  247CHL      C 1358   3.410   3.267   2.078  0.2766  0.2378  0.4819
  247CHL    CL1 1359   3.277   3.215   2.188  0.2921 -0.2041 -0.1915
  247CHL    CL2 1360   3.343   3.366   1.955  0.2881 -0.2598  0.0694
  247CHL      H 1361   3.467   3.183   2.039  0.0309  0.2737  0.0397
  248CHL     CL 1362   2.878   3.220   1.897 -0.2640 -0.2548  0.1282
  248CHL      C 1363   2.849   3.387   1.833 -0.5812 -0.3413  0.1289
  248CHL    CL1 1364   2.787   3.399   1.662  0.1710 -0.1693  0.0413
  248CHL    CL2 1365   2.745   3.466   1.954  0.2049 -0.2408 -0.0301
  248CHL      H 1366   2.947   3.436   1.828  0.0548 -1.2313  2.3813
  249CHL     CL 1367   2.956   2.863   3.367 -0.3619  0.1447  0.1411
  249CHL      C 1368   2.811   2.885   3.266 -0.1786 -0.2082  0.0036
  249CHL    CL1 1369   2.659   2.903   3.375  0.3728 -0.0852  0.5643
  249CHL    CL2 1370   2.820   3.031   3.154  0.1766 -0.1352  0.0747
  249CHL      H 1371   2.802   2.796   3.202  1.9191 -0.0320 -0.5912
  250CHL     CL 1372   2.880   2.320   2.430  0.2478 -0.0442 -0.3128
  250CHL      C 1373   2.946   2.462   2.344 -0.1237 -0.5892 -0.5386
  250CHL    CL1 1374   2.951   2.585   2.474  0.1196 -0.1238 -0.3701
  250CHL    CL2 1375   3.107   2.435   2.268 -0.0804  0.0526 -0.3726
  250CHL      H 1376   2.883   2.497   2.261  1.9081  0.3542 -1.7750
  251CHL     CL 1377   1.636   2.724   1.186  0.1184 -0.0140  0.0909
  251CHL      C 1378   1.662   2.673   1.009 -0.0032 -0.0654 -1.4667
  251CHL    CL1 1379   1.514   2.589   0.940 -0.0657 -0.0485 -0.6078
  251CHL    CL2 1380   1.697   2.829   0.920  0.3607  0.1735 -0.0836
  251CHL      H 1381   1.747   2.605   0.998  0.1248  0.2755 -2.7867
  252CHL     CL 1382   1.513   3.331   2.749 -0.0130 -0.0855 -0.0127
  252CHL      C 1383   1.400   3.438   2.655  0.2076  0.7343  0.2329
  252CHL    CL1 1384   1.229   3.396   2.698  0.3249  0.1480 -0.3553
  252CHL    CL2 1385   1.436   3.611   2.704 -0.3043  0.0645 -0.1075
  252CHL      H 1386   1.430   3.420   2.551  0.0240 -0.3508  0.3650
  253CHL     CL 1387   3.173   2.159   1.373  0.2382 -0.1552  0.0490
  253CHL      C 1388   3.108   2.303   1.290  0.0178  0.3775 -0.3589
  253CHL    CL1 1389   3.240   2.434   1.321  0.0377 -0.3772 -0.1704
  253CHL    CL2 1390   3.075   2.273   1.120  0.0023  0.5310 -0.0682
  253CHL      H 1391   3.015   2.341   1.333  0.7222 -0.8985  2.5472
  254CHL     CL 1392   2.705   2.865   2.752  0.1364  0.2838 -0.0700
  254CHL      C 1393   2.575   2.904   2.875  0.4563  0.3081 -0.6188
  254CHL    CL1 1394   2.410   2.886   2.815  0.1653 -0.5227 -0.3412
  254CHL    CL2 1395   2.588   2.796   3.019 -0.1086  0.0109  0.0529
  254CHL      H 1396   2.594   3.007   2.907  0.6247 -0.2314  1.1586
  255CHL     CL 1397   2.627   1.866   0.707 -0.2707 -0.0150  0.1514
  255CHL      C 1398   2.505   1.731   0.673 -0.2696  0.7033  0.0639
  255CHL    CL1 1399   2.382   1.730   0.802  0.3292 -0.3083 -0.1617
  255CHL    CL2 1400   2.428   1.765   0.509  0.0013 -0.1465 -0.0431
  255CHL      H 1401   2.567   1.641   0.669 -0.5386  0.5209 -3.9636
  256CHL     CL 1402   1.580   1.513   1.347  0.0266 -0.2536 -0.5876
  256CHL      C 1403   1.476   1.630   1.448  0.1132  0.3537  0.5357
  256CHL    CL1 1404   1.502   1.601   1.624 -0.0520  0.1613 -0.0851
  256CHL    CL2 1405   1.508   1.801   1.412  0.1129 -0.0401 -0.2092
  256CHL      H 1406   1.375   1.601   1.417  0.3762  0.9504 -0.9751
  257CHL     CL 1407   2.347   1.167   0.227 -0.0612 -0.5446 -0.1009
  257CHL      C 1408   2.372   1.344   0.224  0.7529 -0.1715 -0.1862
  257CHL    CL1 1409   2.243   1.417   0.333  0.0398 -0.4128  0.0504
  257CHL    CL2 1410   2.538   1.397   0.281 -0.1633 -0.3303  0.1190
  257CHL      H 1411   2.357   1.385   0.123 -0.2037 -0.6928 -0.2661
  258CHL     CL 1412   0.602   3.223   1.665 -0.2576  0.2794  0.3907
  258CHL      C 1413   0.461   3.308   1.591 -0.3816 -0.0124  0.0434
  258CHL    CL1 1414   0.508   3.463   1.509  0.2822  0.2729  0.1905
  258CHL    CL2 1415   0.375   3.200   1.477  0.6099  0.3581  0.1752
  258CHL      H 1416   0.392   3.330   1.674 -1.7570 -0.9271 -0.8262
  259CHL     CL 1417   3.010   3.463   3.195  0.3013  0.1316 -0.3704
  259CHL      C 1418   2.973   3.640   3.202 -0.7035  0.3111 -0.4337
  259CHL    CL1 1419   2.851   3.683   3.086 -0.3932 -0.1373  0.2026
  259CHL    CL2 1420   2.912   3.683   3.368  0.5144 -0.0966  0.0730
  259CHL      H 1421   3.071   3.684   3.184 -0.4313  0.9817  2.2817
  260CHL     CL 1422   2.176   1.014   1.986 -0.1030  0.3577  0.1484
  260CHL      C 1423   2.069   1.110   1.858 -0.3488  0.2411 -0.4299
  260CHL    CL1 1424   2.104   1.055   1.690 -0.0610 -0.4182 -0.0020
  260CHL    CL2 1425   1.897   1.077   1.896 -0.1286  0.4128  0.1124
  260CHL      H 1426   2.075   1.219   1.867  0.3049  0.0556  2.2460
  261CHL     CL 1427   0.791   2.132   2.941 -0.0976 -0.2256 -0.3328
  261CHL      C 1428   0.635   2.038   2.997 -0.5043 -0.5659  0.1297
  261CHL    CL1 1429   0.513   2.025   2.867 -0.0087 -0.0816  0.0372
  261CHL    CL2 1430   0.685   1.880   3.058 -0.4578  0.3669  0.2168
  261CHL      H 1431   0.602   2.090   3.087  1.1247 -1.0656  1.0628
  262CHL     CL 1432   2.559   2.392   0.527  0.3764 -0.0769  0.0038
  262CHL      C 1433   2.547   2.539   0.426 -0.3844 -0.7054 -0.4505
  262CHL    CL1 1434   2.526   2.680   0.532 -0.2363  0.0659 -0.1927
  262CHL    CL2 1435   2.709   2.569   0.338  0.5123  0.5599  0.1558
  262CHL      H 1436   2.459   2.526   0.362 -0.2964 -3.0361 -0.1627
  263CHL     CL 1437   2.165   0.033   1.504  0.6654  0.2328  0.1647
  263CHL      C 1438   2.125   0.102   1.342 -0.7462  1.2961 -0.7287
  263CHL    CL1 1439   2.071   0.278   1.356  0.6217  0.0279 -0.0631
  263CHL    CL2 1440   2.271   0.092   1.234 -0.3189 -0.0951 -0.3541
  263CHL      H 1441   2.043   0.044   1.299  1.5153 -1.6956 -1.3408
  264CHL     CL 1442   1.787   1.995   2.708 -0.2720  0.0871  0.1283
  264CHL      C 1443   1.887   2.139   2.776  0.1821 -0.6951  0.0764
  264CHL    CL1 1444   1.812   2.289   2.700 -0.0102  0.4531 -0.0022
  264CHL    CL2 1445   1.880   2.142   2.955  0.0615  0.1899  0.1758
  264CHL      H 1446   1.991   2.120   2.747  0.9700 -0.5624  2.5913
  265CHL     CL 1447   3.301   0.357   3.239  0.1970  0.2512 -0.1087
  265CHL      C 1448   3.229   0.502   3.306  0.3389  0.3815  0.0591
  265CHL    CL1 1449   3.332   0.548   3.441 -0.4478  0.0914  0.1228
  265CHL    CL2 1450   3.232   0.636   3.185 -0.2998  0.0363  0.1365
  265CHL      H 1451   3.124   0.485   3.332  0.3142  1.5700  0.8403
  266CHL     CL 1452   0.029   3.169   3.680  0.0471  0.0413 -0.1312
  266CHL      C 1453   0.125   3.071   3.547  0.2105 -0.3116  0.2281
  266CHL    CL1 1454   0.116   3.159   3.383 -0.2740  0.1788  0.0873
  266CHL    CL2 1455   0.295   3.048   3.601  0.1988  0.1835  0.4713
  266CHL      H 1456   0.073   2.975   3.544 -0.2752 -0.1705  2.5447
  267CHL     CL 1457   2.618   0.084   2.435 -0.0796  0.3979 -0.0335
  267CHL      C 1458   2.539   0.005   2.577  0.6438  0.4279  0.8554
  267CHL    CL1 1459   2.554  -0.169   2.542 -0.3075  0.1897  0.1401
  267CHL    CL2 1460   2.619   0.056   2.728 -0.5763  0.1052  0.1399
  267CHL      H 1461   2.437   0.042   2.588  0.3933 -0.2899  0.9880
  268CHL     CL 1462   2.654   0.896   1.722 -0.0388  0.0292 -0.0246
  268CHL      C 1463   2.595   0.744   1.811  0.7211  0.5728  0.2104
  268CHL    CL1 1464   2.415   0.729   1.769  0.2970  0.0812 -0.6753
  268CHL    CL2 1465   2.699   0.605   1.770 -0.2519 -0.0024 -0.0773
  268CHL      H 1466   2.605   0.750   1.920 -0.6802 -1.4867  0.5134
  269CHL     CL 1467   1.397   1.506   2.268 -0.4980  0.2389 -0.4282
  269CHL      C 1468   1.332   1.460   2.425  0.0981 -0.0618  0.4862
  269CHL    CL1 1469   1.164   1.517   2.434 -0.1369 -0.1921 -0.1021
  269CHL    CL2 1470   1.343   1.277   2.444 -0.2961 -0.0760 -0.0484
  269CHL      H 1471   1.380   1.508   2.510  1.9907  0.1366 -0.6344
  270CHL     CL 1472   2.504   2.386   1.395 -0.0398  0.3210  0.2917
  270CHL      C 1473   2.587   2.478   1.267 -0.1456  0.0626 -0.5311
  270CHL    CL1 1474   2.630   2.643   1.327  0.2941 -0.0116 -0.2094
  270CHL    CL2 1475   2.745   2.403   1.212 -0.4534 -0.1957 -0.2597
  270CHL      H 1476   2.531   2.471   1.173  0.3162 -2.5514 -0.6707
  271CHL     CL 1477   2.511   0.025   3.394 -0.1404 -0.2188  0.1972
  271CHL      C 1478   2.398   0.047   3.530 -0.0559  0.2760  0.8377
  271CHL    CL1 1479   2.481   0.109   3.681  0.1863  0.0386  0.3070
  271CHL    CL2 1480   2.255   0.154   3.486 -0.2931  0.0237 -0.5291
  271CHL      H 1481   2.364  -0.055   3.548  1.0739 -0.0356  1.2969
  272CHL     CL 1482   2.438   1.963   2.270  0.2520 -0.1702 -0.5529
  272CHL      C 1483   2.550   2.048   2.372  0.0196  0.0402 -0.0477
  272CHL    CL1 1484   2.491   2.215   2.404  0.4408  0.3778  0.2499
  272CHL    CL2 1485   2.585   1.957   2.517 -0.3403 -0.3270 -0.4496
  272CHL      H 1486   2.645   2.059   2.317  1.2226 -0.6422  1.8045
  273CHL     CL 1487   0.977   2.115   1.428  0.2546  0.1569  0.0704
  273CHL      C 1488   1.019   2.097   1.596  0.0227 -0.1120 -0.2182
  273CHL    CL1 1489   1.082   1.935   1.625 -0.1239 -0.2800  0.1390
  273CHL    CL2 1490   1.139   2.213   1.654 -0.3881 -0.3747  0.3153
  273CHL      H 1491   0.931   2.111   1.659  0.6778 -0.1544  0.7236
  274CHL     CL 1492   0.964   1.541   1.373 -0.4357  0.4120  0.5318
  274CHL      C 1493   0.972   1.431   1.227 -0.9220 -0.0628  0.1519
  274CHL    CL1 1494   0.809   1.370   1.198  0.2997 -0.3164 -0.0442
  274CHL    CL2 1495   1.019   1.525   1.087  0.5222 -0.4042  0.1783
  274CHL      H 1496   1.045   1.350   1.231 -0.7539 -0.0249 -1.4371
  275CHL     CL 1497   1.054   0.711   2.667  0.0418  0.3107 -0.2982
  275CHL      C 1498   0.959   0.589   2.568  0.0141  0.2701 -0.1478
  275CHL    CL1 1499   0.846   0.486   2.664 -0.1885 -0.0695 -0.0503
  275CHL    CL2 1500   0.873   0.663   2.427 -0.1047  0.1113 -0.3391
  275CHL      H 1501   1.032   0.525   2.516 -0.6273  1.8095 -3.1974
  276CHL     CL 1502   3.237   2.547   0.856 -0.3854 -0.0778 -0.0216
  276CHL      C 1503   3.344   2.699   0.852  0.0956 -0.4586  0.2861
  276CHL    CL1 1504   3.394   2.740   1.020 -0.2716 -0.0748  0.0968
  276CHL    CL2 1505   3.486   2.654   0.754 -0.0113  0.0333 -0.0601
  276CHL      H 1506   3.294   2.780   0.798  1.0080 -0.7763 -1.0784
  277CHL     CL 1507   0.984   2.925   0.306 -0.1930  0.0500 -0.3818
  277CHL      C 1508   1.099   2.982   0.177 -1.3538 -0.6173  0.7102
  277CHL    CL1 1509   1.104   3.165   0.159  0.3892  0.1353 -0.3521
  277CHL    CL2 1510   1.273   2.925   0.207 -0.0069  0.1522 -0.4442
  277CHL      H 1511   1.073   2.952   0.075  0.5934 -1.0264  0.2903
  278CHL     CL 1512   1.904   3.590   0.013  0.2409  0.2762 -0.2682
  278CHL      C 1513   1.967   3.425   0.004 -0.8812 -0.7050 -0.6305
  278CHL    CL1 1514   1.973   3.350   0.160 -0.0466  0.2312 -0.1132
  278CHL    CL2 1515   1.878   3.334  -0.121  0.1740  0.1382  0.3739
  278CHL      H 1516   2.068   3.438  -0.036 -0.2268 -1.4101  0.7257
  279CHL     CL 1517   1.295   1.332   1.085 -0.1608  0.3757  0.4228
  279CHL      C 1518   1.229   1.331   0.924  0.3810  0.0976 -0.2035
  279CHL    CL1 1519   1.301   1.463   0.825 -0.1792  0.0133 -0.1288
  279CHL    CL2 1520   1.251   1.180   0.841  0.0207 -0.1481 -0.2855
  279CHL      H 1521   1.123   1.354   0.936  0.9982  2.0394  2.2620
  280CHL     CL 1522   0.591   0.375   1.566  0.4181  0.2804 -0.6040
  280CHL      C 1523   0.528   0.540   1.566  0.4583 -0.0347 -0.1316
  280CHL    CL1 1524   0.507   0.595   1.740 -0.0457  0.1441  0.0223
  280CHL    CL2 1525   0.638   0.662   1.481 -0.0258  0.0306  0.2570
  280CHL      H 1526   0.431   0.539   1.516  1.3186 -1.4167 -1.8988
  281CHL     CL 1527   3.186   0.860   0.201  0.0414 -0.2730 -0.2660
  281CHL      C 1528   3.291   0.842   0.061  0.0058 -0.2987  0.0962
  281CHL    CL1 1529   3.195   0.863  -0.091  0.0189  0.1630  0.0193
  281CHL    CL2 1530   3.416   0.975   0.068  0.6851  0.0631  0.2784
  281CHL      H 1531   3.348   0.749   0.050  2.0636  1.1772 -3.5058
  282CHL     CL 1532   1.550   3.690   1.732  0.3399  0.0898 -0.2804
  282CHL      C 1533   1.727   3.680   1.693  0.0090  0.3119  0.3727
  282CHL    CL1 1534   1.753   3.707   1.524  0.2600  0.4820 -0.4812
  282CHL    CL2 1535   1.810   3.806   1.791 -0.4158 -0.0592 -0.2488
  282CHL      H 1536   1.779   3.587   1.714  2.8480  1.1530 -2.2201
  283CHL     CL 1537   3.704   1.646   2.078  0.2723 -0.4697  0.0962
  283CHL      C 1538   3.603   1.764   2.000  0.9864 -0.6261  0.3013
  283CHL    CL1 1539   3.570   1.695   1.838 -0.1277  0.1018 -0.3060
  283CHL    CL2 1540   3.450   1.794   2.097  0.2309  0.1655 -0.3502
  283CHL      H 1541   3.662   1.853   1.975 -0.4848  0.0184 -1.0099
  284CHL     CL 1542   2.933   0.564   0.785  0.5412 -0.0197  0.0897
  284CHL      C 1543   2.987   0.704   0.885 -0.2959 -0.3686  0.1623
  284CHL    CL1 1544   3.130   0.663   0.995  0.0883  0.4646 -0.1691
  284CHL    CL2 1545   3.031   0.840   0.777 -0.5498  0.3919  0.4240
  284CHL      H 1546   2.904   0.740   0.947  0.7298 -0.0664  1.4039
  285CHL     CL 1547   0.969   0.130   0.775 -0.0601 -0.3296 -0.2531
  285CHL      C 1548   0.909   0.111   0.601 -0.4371 -0.3729 -0.0266
  285CHL    CL1 1549   1.051   0.067   0.506  0.0194 -0.0419 -0.4320
  285CHL    CL2 1550   0.795  -0.019   0.612  0.2410  0.1501 -0.2161
  285CHL      H 1551   0.867   0.205   0.566  0.3169  1.5350  3.7061
  286CHL     CL 1552   1.737   1.590   2.672 -0.1801  0.0549  0.1927
  286CHL      C 1553   1.843   1.488   2.572 -0.6874 -0.4343 -0.6340
  286CHL    CL1 1554   1.811   1.511   2.400  0.1713  0.1505  0.3479
  286CHL    CL2 1555   2.023   1.526   2.610 -0.0874  0.3165  0.2896
  286CHL      H 1556   1.826   1.382   2.596  1.5800 -1.0095 -1.2933
  287CHL     CL 1557   0.393   2.116   1.566  0.5100 -0.4345 -0.3030
  287CHL      C 1558   0.547   2.189   1.631 -0.3368  0.0418  0.2295
  287CHL    CL1 1559   0.644   2.082   1.739  0.1295  0.0348 -0.2945
  287CHL    CL2 1560   0.642   2.250   1.495  0.2795  0.3067  0.0700
  287CHL      H 1561   0.522   2.281   1.687  0.1561  2.7520 -3.6323
  288CHL     CL 1562   2.113   3.725   0.974 -0.0665  0.0743  0.0292
  288CHL      C 1563   1.965   3.632   1.025 -0.2095 -0.0069 -0.4722
  288CHL    CL1 1564   1.967   3.467   0.961 -0.1360 -0.0463  0.0174
  288CHL    CL2 1565   1.971   3.619   1.201  0.0602  0.1146 -0.2963
  288CHL      H 1566   1.871   3.676   0.991 -1.0761 -0.5699  1.1189
  289CHL     CL 1567   2.587   2.009   2.853 -0.2194 -0.2666 -0.3240
  289CHL      C 1568   2.741   2.056   2.915 -0.3407 -0.4346  0.7275
  289CHL    CL1 1569   2.735   2.100   3.094 -0.2371  0.2989  0.5624
  289CHL    CL2 1570   2.854   1.923   2.874 -0.0279 -0.2721 -0.1097
  289CHL      H 1571   2.769   2.149   2.863  0.9964 -1.1855  0.0599
  290CHL     CL 1572   2.617   2.156   0.117  0.5701 -0.2428 -0.2596
  290CHL      C 1573   2.482   2.134   0.231  0.2176  0.7635 -0.4175
  290CHL    CL1 1574   2.385   2.284   0.250 -0.2827 -0.2388 -0.1952
  290CHL    CL2 1575   2.367   2.013   0.180 -0.1027  0.3456 -0.3491
  290CHL      H 1576   2.521   2.095   0.326 -0.2474 -1.6842 -1.1517
  291CHL     CL 1577   0.122   0.500   1.638  0.2482 -0.0732 -0.3773
  291CHL      C 1578   0.026   0.468   1.487 -0.2537 -0.3757 -0.1608
  291CHL    CL1 1579  -0.148   0.506   1.513 -0.0167 -0.3290  0.3909
  291CHL    CL2 1580   0.090   0.538   1.337 -0.0981 -0.0334 -0.1287
  291CHL      H 1581   0.027   0.364   1.455 -3.1925 -0.5071 -0.0296
  292CHL     CL 1582   1.117   1.837   2.601 -0.2397  0.1202 -0.2691
  292CHL      C 1583   0.977   1.779   2.709  0.0208 -0.1830 -0.0193
  292CHL    CL1 1584   0.840   1.883   2.673  0.0299 -0.1738 -0.1558
  292CHL    CL2 1585   0.950   1.612   2.684 -0.4160 -0.0124  0.5112
  292CHL      H 1586   1.005   1.806   2.812  0.1214  1.6576 -0.4827
  293CHL     CL 1587   1.373   0.648   3.730  0.0534 -0.2852 -0.0650
  293CHL      C 1588   1.253   0.788   3.707  0.3658 -0.1892  0.2613
  293CHL    CL1 1589   1.096   0.744   3.755 -0.2951  0.4176 -0.1480
  293CHL    CL2 1590   1.299   0.944   3.796 -0.1193 -0.1030 -0.2219
  293CHL      H 1591   1.253   0.806   3.599  0.1235 -1.0715  0.1057
  294CHL     CL 1592   2.193   3.437   1.376 -0.0093 -0.2114  0.0350
  294CHL      C 1593   2.359   3.438   1.434 -0.6405 -0.6378 -0.6025
  294CHL    CL1 1594   2.370   3.518   1.590  0.0796 -0.1739  0.0552
  294CHL    CL2 1595   2.429   3.274   1.457  0.0363 -0.1149  0.3993
  294CHL      H 1596   2.417   3.502   1.366 -0.0843 -1.6732 -1.1402
  295CHL     CL 1597   0.349   2.893   0.285  0.0050  0.0818 -0.2228
  295CHL      C 1598   0.188   2.815   0.246 -0.4206 -0.3341 -0.1504
  295CHL    CL1 1599   0.106   2.916   0.115  0.0014  0.1127 -0.2269
  295CHL    CL2 1600   0.212   2.650   0.182 -0.1561 -0.0365 -0.4194
  295CHL      H 1601   0.128   2.815   0.337  0.1575  0.7901  0.2564
  296CHL     CL 1602   0.649   2.095   2.336  0.4753 -0.2072 -0.6419
  296CHL      C 1603   0.499   1.994   2.306 -0.8337  0.6948 -0.1617
  296CHL    CL1 1604   0.478   1.891   2.446 -0.0256 -0.2963 -0.3862
  296CHL    CL2 1605   0.366   2.086   2.261 -0.0191  0.1739 -0.1337
  296CHL      H 1606   0.526   1.921   2.230  0.3140  0.5819  0.3355
  297CHL     CL 1607   1.223   1.980   1.225  0.0867 -0.1537 -0.3916
  297CHL      C 1608   1.116   1.937   1.080 -0.3874  0.4717 -0.0437
  297CHL    CL1 1609   1.206   1.827   0.973  0.0801  0.1752  0.4151
  297CHL    CL2 1610   0.956   1.861   1.134  0.0865  0.0130  0.2056
  297CHL      H 1611   1.089   2.027   1.025  1.7092  2.4988  2.0143
  298CHL     CL 1612   1.370   1.534   3.681 -0.0365 -0.0046  0.0473
  298CHL      C 1613   1.483   1.606   3.562  0.2116  0.1577  0.0176
  298CHL    CL1 1614   1.619   1.498   3.528 -0.2283  0.0639  0.4773
  298CHL    CL2 1615   1.393   1.662   3.419 -0.4227 -0.0882 -0.1248
  298CHL      H 1616   1.518   1.696   3.614  1.2391 -1.3284  1.9874
  299CHL     CL 1617   2.255   2.885   0.506 -0.1928  0.5772  0.8221
  299CHL      C 1618   2.076   2.851   0.517  0.3213  0.8661 -0.4309
  299CHL    CL1 1619   2.003   2.733   0.397  0.1855  0.0774  0.1188
  299CHL    CL2 1620   2.050   2.792   0.675 -0.1398  0.0475  0.3416
  299CHL      H 1621   2.025   2.947   0.499  1.4475  1.4790 -0.4317
  300CHL     CL 1622   0.711   0.057   1.085 -0.0283  0.0941 -0.3292
  300CHL      C 1623   0.549   0.048   1.004  0.0096 -0.3548 -1.1034
  300CHL    CL1 1624   0.415   0.127   1.112 -0.0672  0.1756 -0.0650
  300CHL    CL2 1625   0.553   0.096   0.827 -0.0342  0.2342  0.2668
  300CHL      H 1626   0.532  -0.060   1.008  2.3196 -0.7377 -0.4205
  301CHL     CL 1627   1.579   1.843   0.607  0.1731 -0.2701 -0.1130
  301CHL      C 1628   1.688   1.706   0.618 -0.5031  0.0819  0.2997
  301CHL    CL1 1629   1.598   1.553   0.595  0.2904  0.0457  0.0033
  301CHL    CL2 1630   1.819   1.708   0.501  0.5639  0.2444  0.3049
  301CHL      H 1631   1.743   1.699   0.713  0.3624 -0.2836 -0.2203
  302CHL     CL 1632   2.571   2.974   3.760  0.1681  0.1503 -0.2552
  302CHL      C 1633   2.531   2.988   3.927 -0.1097 -0.2090  0.1557
  302CHL    CL1 1634   2.518   2.828   3.999  0.4856 -0.0288  0.0150
  302CHL    CL2 1635   2.655   3.079   4.022  0.0095  0.1364 -0.1992
  302CHL      H 1636   2.433   3.037   3.937 -0.4839 -0.7933 -0.5284
  303CHL     CL 1637   3.472   2.266   2.512 -0.3994  0.4335  0.0789
  303CHL      C 1638   3.526   2.134   2.403  0.7038  0.4551 -0.0467
  303CHL    CL1 1639   3.387   2.061   2.335  0.3116  0.1471 -0.3787
  303CHL    CL2 1640   3.657   2.174   2.279  0.1974  0.2652  0.1686
  303CHL      H 1641   3.574   2.051   2.456  2.5383 -0.5863 -3.0967
  304CHL     CL 1642   1.568   2.710   2.389  0.1842 -0.5374  0.2056
  304CHL      C 1643   1.733   2.775   2.363 -0.4727  0.7092  0.2210
  304CHL    CL1 1644   1.732   2.914   2.246  0.2504 -0.2900 -0.1946
  304CHL    CL2 1645   1.786   2.837   2.527 -0.2920  0.4312  0.1265
  304CHL      H 1646   1.785   2.687   2.323 -0.4311 -0.0964  1.9515
  305CHL     CL 1647   3.052   2.834   0.987  0.2893 -0.0738  0.0142
  305CHL      C 1648   2.895   2.805   0.907  0.3273 -0.1000  0.7570
  305CHL    CL1 1649   2.888   2.644   0.826 -0.1046  0.0632 -0.4085
  305CHL    CL2 1650   2.769   2.818   1.035 -0.1104  0.1909 -0.0263
  305CHL      H 1651   2.883   2.876   0.824 -2.1007 -0.4541  0.7056
  306CHL     CL 1652   3.502   2.374   2.038 -0.2885 -0.0402  0.1187
  306CHL      C 1653   3.414   2.226   1.995 -0.0048 -0.1313 -0.3842
  306CHL    CL1 1654   3.332   2.266   1.845  0.0460 -0.2397 -0.1689
  306CHL    CL2 1655   3.522   2.085   1.961 -0.0871 -0.2177  0.1520
  306CHL      H 1656   3.337   2.205   2.070 -0.1605  0.0098 -0.5042
  307CHL     CL 1657   2.956   3.570   0.415  0.1113  0.1795 -0.0679
  307CHL      C 1658   2.869   3.432   0.502 -0.1154  0.2509  0.1692
  307CHL    CL1 1659   2.859   3.282   0.401 -0.1345 -0.0847  0.4994
  307CHL    CL2 1660   2.956   3.391   0.660  0.0402 -0.0709 -0.8714
  307CHL      H 1661   2.768   3.466   0.530 -0.4031 -0.0078 -0.5177
  308CHL     CL 1662   0.969   1.166   3.437 -0.1169  0.1941 -0.0638
  308CHL      C 1663   0.906   1.270   3.292 -0.6449  0.5422  0.4285
  308CHL    CL1 1664   0.797   1.169   3.197 -0.2631  0.0302  0.3570
  308CHL    CL2 1665   0.845   1.426   3.333 -0.1626 -0.3887 -0.1502
  308CHL      H 1666   0.995   1.292   3.232 -1.2156  0.7248 -0.3617
  309CHL     CL 1667   2.924   3.691   3.802 -0.3523  0.0208  0.1378
  309CHL      C 1668   3.077   3.776   3.765  0.2507  0.8249  0.4236
  309CHL    CL1 1669   3.118   3.795   3.592 -0.2317  0.7605  0.4583
  309CHL    CL2 1670   3.081   3.928   3.863  0.2142  0.6686 -0.1140
  309CHL      H 1671   3.154   3.707   3.801 -0.7969 -0.6186  0.0071
  310CHL     CL 1672   2.710   1.531   2.885 -0.0553  0.1473 -0.0057
  310CHL      C 1673   2.843   1.554   3.001  1.0234 -0.5125  0.3860
  310CHL    CL1 1674   2.857   1.408   3.107  0.1234 -0.3028 -0.4095
  310CHL    CL2 1675   2.988   1.581   2.907  0.2496 -0.1024  0.2897
  310CHL      H 1676   2.817   1.645   3.056  1.6914 -0.4732  0.6464
  311CHL     CL 1677   0.103   1.860   2.273 -0.0614 -0.2291  0.1016
  311CHL      C 1678   0.051   1.776   2.423  0.3390 -0.1067  0.0909
  311CHL    CL1 1679  -0.092   1.856   2.494 -0.6734  0.1812 -0.1065
  311CHL    CL2 1680   0.008   1.605   2.390  0.0837  0.1270 -0.4336
  311CHL      H 1681   0.140   1.785   2.486  0.2272 -0.4169  0.2955
  312CHL     CL 1682   0.949   3.081   1.664 -0.1854 -0.0929  0.1776
  312CHL      C 1683   1.100   3.187   1.683 -0.3738 -0.2815  0.7090
  312CHL    CL1 1684   1.035   3.342   1.737 -0.6691 -0.0819 -0.4277
  312CHL    CL2 1685   1.202   3.107   1.806 -0.4815 -0.4485  0.0640
  312CHL      H 1686   1.152   3.211   1.590 -3.3511  2.1743 -0.4864
  313CHL     CL 1687   2.074   2.044   3.439  0.3461 -0.2119  0.2547
  313CHL      C 1688   2.059   1.870   3.412 -0.1507  0.7986 -0.7814
  313CHL    CL1 1689   1.909   1.808   3.492 -0.2086  0.2560 -0.1824
  313CHL    CL2 1690   2.053   1.830   3.243 -0.1311 -0.0034 -0.0841
  313CHL      H 1691   2.150   1.829   3.457  0.5700  2.0220 -1.0970
  314CHL     CL 1692   2.478   3.279   1.869  0.2775 -0.1474  0.1403
  314CHL      C 1693   2.395   3.237   2.032 -0.2116  0.1331  0.0117
  314CHL    CL1 1694   2.534   3.250   2.135 -0.0463 -0.0805 -0.0003
  314CHL    CL2 1695   2.272   3.364   2.067 -0.0754  0.2540  0.1116
  314CHL      H 1696   2.350   3.138   2.019 -0.8675  0.5375 -0.8419
  315CHL     CL 1697   0.329   2.798   2.154 -0.2697 -0.0345  0.4295
  315CHL      C 1698   0.356   2.736   2.326  0.5091  0.2001 -0.4782
  315CHL    CL1 1699   0.455   2.595   2.307 -0.3618  0.0716 -0.0560
  315CHL    CL2 1700   0.434   2.859   2.431  0.2222  0.3309 -0.3699
  315CHL      H 1701   0.259   2.709   2.368 -0.6125  0.0874 -2.9676
  316CHL     CL 1702   2.038   1.281   2.832 -0.0863  0.3035 -0.0034
  316CHL      C 1703   2.171   1.171   2.779 -0.2063 -0.8846  0.0492
  316CHL    CL1 1704   2.118   1.065   2.641 -0.0947 -0.3611 -0.0763
  316CHL    CL2 1705   2.314   1.274   2.730  0.0587 -0.2930 -0.4660
  316CHL      H 1706   2.204   1.110   2.864  2.1066 -0.3480 -0.4123
  317CHL     CL 1707   2.803   3.438   2.318 -0.2794  0.2660 -0.4213
  317CHL      C 1708   2.821   3.620   2.330 -0.0377  1.1018  0.0347
  317CHL    CL1 1709   2.954   3.671   2.452 -0.2421  0.5026  0.3703
  317CHL    CL2 1710   2.862   3.674   2.164  0.0402  0.1937  0.5163
  317CHL      H 1711   2.721   3.654   2.360  0.1937 -0.6096  3.2772
  318CHL     CL 1712   1.280   0.851   2.942 -0.1180  0.1313  0.3240
  318CHL      C 1713   1.161   0.870   3.071 -0.2476  0.5858 -0.5776
  318CHL    CL1 1714   1.214   0.982   3.200 -0.2455 -0.3091  0.1212
  318CHL    CL2 1715   0.995   0.926   3.006 -0.2534  0.0543 -0.1896
  318CHL      H 1716   1.141   0.769   3.109  2.3914 -0.4525 -1.6972
  319CHL     CL 1717   0.598   1.126   3.501  0.1819  0.0994 -0.3991
  319CHL      C 1718   0.513   1.033   3.637 -0.3918 -0.2079  0.3387
  319CHL    CL1 1719   0.477   1.146   3.775  0.2330  0.0637  0.6368
  319CHL    CL2 1720   0.368   0.962   3.563 -0.0268  0.0462 -0.0669
  319CHL      H 1721   0.584   0.957   3.671  2.0350  1.1532 -1.3582
  320CHL     CL 1722   3.136   0.972   3.358  0.1494 -0.1121 -0.0325
  320CHL      C 1723   2.970   0.926   3.429 -0.0037  0.7206  0.1073
  320CHL    CL1 1724   2.837   1.009   3.331  0.1232  0.1696 -0.1464
  320CHL    CL2 1725   2.938   0.743   3.420  0.4377 -0.1694  0.1776
  320CHL      H 1726   2.966   0.955   3.535 -0.2317  1.2447 -0.0406
  321CHL     CL 1727   3.322   3.450   0.472 -0.0674 -0.0310  0.3455
  321CHL      C 1728   3.437   3.564   0.391 -0.0300  0.1986 -0.2056
  321CHL    CL1 1729   3.332   3.673   0.288  0.3726 -0.3516 -0.1681
  321CHL    CL2 1730   3.534   3.657   0.514  0.4868 -0.1999 -0.5991
  321CHL      H 1731   3.501   3.501   0.329  0.6739  1.1924 -0.5149
  322CHL     CL 1732   0.087   3.289   2.522  0.2224 -0.0738 -0.0296
  322CHL      C 1733  -0.013   3.393   2.416 -0.1365 -0.2226 -0.0025
  322CHL    CL1 1734  -0.038   3.567   2.469  0.0245 -0.3080  0.1565
  322CHL    CL2 1735   0.076   3.392   2.265 -0.0877  0.1494 -0.2881
  322CHL      H 1736  -0.105   3.342   2.386  0.1073 -0.2641 -0.7024
  323CHL     CL 1737   1.165   0.898   2.348  0.2391 -0.0094  0.2526
  323CHL      C 1738   1.348   0.913   2.360 -0.4467  0.2659  0.1604
  323CHL    CL1 1739   1.394   0.896   2.535 -0.7122  0.0887  0.0041
  323CHL    CL2 1740   1.432   0.788   2.258 -0.0748  0.7801  0.0291
  323CHL      H 1741   1.368   1.016   2.328 -0.4479  0.6744  1.4020
  324CHL     CL 1742   3.278   1.727   3.347  0.2072  0.0671  0.1014
  324CHL      C 1743   3.117   1.681   3.283  0.5370  0.2017 -0.5880
  324CHL    CL1 1744   3.031   1.576   3.398 -0.0613  0.3634  0.2296
  324CHL    CL2 1745   3.018   1.826   3.229  0.1247 -0.4429 -0.3132
  324CHL      H 1746   3.130   1.629   3.188 -3.0533  0.2622 -1.2251
  325CHL     CL 1747   2.482   0.694   2.614 -0.2782  0.0573  0.0408
  325CHL      C 1748   2.446   0.620   2.777 -0.9373 -0.3576  0.2611
  325CHL    CL1 1749   2.445   0.437   2.745 -0.4062 -0.3863 -0.6272
  325CHL    CL2 1750   2.573   0.646   2.901 -0.0128  0.1913 -0.0867
  325CHL      H 1751   2.347   0.653   2.811 -1.3030  0.8864 -1.8238
  326CHL     CL 1752   1.232   2.993   2.737  0.2764 -0.1504 -0.3660
  326CHL      C 1753   1.245   2.823   2.785 -0.3668  0.0205 -0.7292
  326CHL    CL1 1754   1.118   2.761   2.912  0.1365 -0.0256 -0.3781
  326CHL    CL2 1755   1.201   2.732   2.631  0.1349  0.0450  0.3447
  326CHL      H 1756   1.347   2.804   2.818 -1.0209  2.7293  3.6266
  327CHL     CL 1757   0.168   1.098   2.455 -0.0009 -0.3866  0.0493
  327CHL      C 1758   0.315   1.191   2.422 -0.3905  0.6671  0.4430
  327CHL    CL1 1759   0.279   1.357   2.473 -0.2406 -0.2014 -0.3061
  327CHL    CL2 1760   0.464   1.141   2.497  0.1165  0.2210 -0.2826
  327CHL      H 1761   0.327   1.184   2.313  0.1167 -1.6317  0.5968
  328CHL     CL 1762   1.224   3.805   1.183 -0.0306  0.3127  0.1916
  328CHL      C 1763   1.195   3.843   1.356 -0.5492  0.1335  0.2234
  328CHL    CL1 1764   1.126   3.689   1.440  0.6911 -0.2170 -0.0701
  328CHL    CL2 1765   1.337   3.915   1.440 -0.2100  0.6710  0.5053
  328CHL      H 1766   1.118   3.920   1.345  1.3843  2.0426 -0.6756
  329CHL     CL 1767   1.050   2.514   2.355 -0.0844  0.0602  0.0155
  329CHL      C 1768   0.888   2.444   2.333  0.3946  0.4705  0.1773
  329CHL    CL1 1769   0.781   2.562   2.250 -0.1585 -0.2529  0.2986
  329CHL    CL2 1770   0.910   2.306   2.226 -0.1086 -0.0679  0.0141
  329CHL      H 1771   0.847   2.413   2.430  0.3381  0.5783  0.1881
  330CHL     CL 1772   2.859   2.025   1.475 -0.0298  0.4375  0.4016
  330CHL      C 1773   2.945   1.915   1.365 -0.1584 -1.0368 -0.4457
  330CHL    CL1 1774   2.925   1.744   1.409  0.0009  0.0205  0.6786
  330CHL    CL2 1775   2.901   1.936   1.192  0.2710  0.2184  0.0472
  330CHL      H 1776   3.054   1.927   1.367 -0.3737  1.2966  0.0399
  331CHL     CL 1777   2.969   1.174   1.998  0.1447 -0.3426  0.0806
  331CHL      C 1778   2.973   1.193   1.816 -0.3207  0.5143 -0.2993
  331CHL    CL1 1779   3.076   1.340   1.771 -0.2410 -0.5809  0.1435
  331CHL    CL2 1780   3.052   1.051   1.739  0.2162  0.3150 -0.0693
  331CHL      H 1781   2.878   1.212   1.764 -0.8514 -1.8884 -0.2950
  332CHL     CL 1782   0.590   1.191   1.714 -0.0795  0.3923  0.1232
  332CHL      C 1783   0.744   1.122   1.695  0.2862 -0.1034 -0.6858
  332CHL    CL1 1784   0.726   0.948   1.686 -0.0732  0.2365 -0.3155
  332CHL    CL2 1785   0.821   1.186   1.555 -0.4531  0.3025  0.8884
  332CHL      H 1786   0.803   1.141   1.785 -1.5753  0.7312  0.4240
  333CHL     CL 1787   3.073   1.298   2.624 -0.2871 -0.3776 -0.1277
  333CHL      C 1788   3.083   1.141   2.535  0.0357 -0.1711 -0.0096
  333CHL    CL1 1789   3.024   1.174   2.370 -0.1045 -0.0104 -0.3903
  333CHL    CL2 1790   3.256   1.097   2.524 -0.3628 -0.0803 -0.1328
  333CHL      H 1791   3.019   1.064   2.579 -0.3866  1.9560  3.5690
  334CHL     CL 1792   0.291   2.172   3.426 -0.5230  0.3675  0.1745
  334CHL      C 1793   0.443   2.069   3.387  0.5283 -0.1625 -0.1761
  334CHL    CL1 1794   0.390   1.947   3.267 -0.1449 -0.0907  0.2473
  334CHL    CL2 1795   0.585   2.173   3.322  0.1331 -0.1078  0.3874
  334CHL      H 1796   0.485   2.031   3.481  1.3194  1.2530  0.0746
  335CHL     CL 1797   2.900   2.534   3.158 -0.0798 -0.3792  0.1574
  335CHL      C 1798   2.924   2.418   3.294  0.7686 -0.0734 -0.2929
  335CHL    CL1 1799   3.079   2.334   3.265 -0.0953  0.7248  0.4385
  335CHL    CL2 1800   2.910   2.487   3.457  0.5723  0.4498 -0.1556
  335CHL      H 1801   2.849   2.338   3.283  1.6775 -0.7971 -1.4703
  336CHL     CL 1802   2.373   0.801   3.524 -0.0266 -0.2869 -0.1854
  336CHL      C 1803   2.319   0.892   3.376  0.5355 -0.0860  0.0782
  336CHL    CL1 1804   2.310   1.062   3.420 -0.1722  0.0327 -0.1698
  336CHL    CL2 1805   2.438   0.855   3.243  0.0488 -0.0363  0.0135
  336CHL      H 1806   2.220   0.858   3.343  0.5196  0.5173 -0.5204
  337CHL     CL 1807   3.266   3.639   2.323 -0.3166 -0.2901 -0.0365
  337CHL      C 1808   3.354   3.798   2.337  0.4897  0.2621  0.0256
  337CHL    CL1 1809   3.328   3.866   2.504 -0.3837  0.0714  0.3287
  337CHL    CL2 1810   3.530   3.753   2.327  0.4898  0.1086 -0.3668
  337CHL      H 1811   3.325   3.866   2.257 -3.0356  0.3615  1.2513
  338CHL     CL 1812   1.646   3.433   1.022  0.1893 -0.3012 -0.1870
  338CHL      C 1813   1.524   3.483   1.148  0.3003  0.1003 -0.1255
  338CHL    CL1 1814   1.542   3.659   1.189  0.0644 -0.0346 -0.1092
  338CHL    CL2 1815   1.358   3.451   1.095  0.1131  0.0339  0.1022
  338CHL      H 1816   1.547   3.430   1.240  2.1790  1.2693  0.1372
  339CHL     CL 1817   2.436   2.612   3.729  0.2921 -0.7185  0.1074
  339CHL      C 1818   2.561   2.560   3.606 -0.2421  0.0714  0.2500
  339CHL    CL1 1819   2.583   2.376   3.626 -0.0556 -0.0163  0.0144
  339CHL    CL2 1820   2.502   2.593   3.438  0.1937  0.2189  0.0966
  339CHL      H 1821   2.657   2.608   3.625  1.8447 -1.6862 -4.5148
  340CHL     CL 1822   1.026   1.710   3.141 -0.0818 -0.6881 -0.1354
  340CHL      C 1823   1.193   1.784   3.129  0.2649 -0.8970 -0.5658
  340CHL    CL1 1824   1.256   1.807   2.959 -0.1357 -0.4635  0.2033
  340CHL    CL2 1825   1.185   1.951   3.205 -0.0842  0.1461  0.1530
  340CHL      H 1826   1.264   1.724   3.188 -0.5263 -0.2910  1.0623
  341CHL     CL 1827   2.465   1.023   2.899  0.3135 -0.1303 -0.0752
  341CHL      C 1828   2.638   1.029   2.854  0.1232  0.2034  0.3288
  341CHL    CL1 1829   2.675   0.951   2.687  0.1195  0.3969 -0.0162
  341CHL    CL2 1830   2.696   1.204   2.841  0.0205  0.6511 -0.4017
  341CHL      H 1831   2.681   0.973   2.937 -0.8851 -0.3730  0.4797
  342CHL     CL 1832   2.233   1.399   1.222 -0.1071  0.4178  0.0031
  342CHL      C 1833   2.260   1.567   1.168 -0.8025  0.3799  1.0058
  342CHL    CL1 1834   2.130   1.683   1.198  0.7405  0.3666 -0.3221
  342CHL    CL2 1835   2.405   1.634   1.244  0.0124 -0.3333 -0.0990
  342CHL      H 1836   2.276   1.575   1.060 -2.5081  0.5627  0.7340
  343CHL     CL 1837   1.367   2.972   0.874  0.0602  0.0426 -0.2222
  343CHL      C 1838   1.299   3.079   0.747  0.0624  0.1240 -0.8385
  343CHL    CL1 1839   1.411   3.216   0.727 -0.3204 -0.3441  0.1944
  343CHL    CL2 1840   1.294   2.998   0.585 -0.5751 -0.0404  0.3524
  343CHL      H 1841   1.201   3.121   0.772  0.5744  1.0570 -0.3301
  344CHL     CL 1842   0.343   1.950   3.820 -0.2244  0.0910 -0.0225
  344CHL      C 1843   0.393   2.118   3.838  0.5717 -0.7356  0.6774
  344CHL    CL1 1844   0.449   2.154   4.004 -0.4560 -0.5787 -0.4097
  344CHL    CL2 1845   0.534   2.160   3.742 -0.1871  0.0048 -0.3902
  344CHL      H 1846   0.308   2.185   3.823  0.7025 -0.2679  1.9261
  345CHL     CL 1847   2.285   2.899   3.260  0.0757 -0.0265  0.0891
  345CHL      C 1848   2.209   2.867   3.428 -0.6141  0.1730  1.0807
  345CHL    CL1 1849   2.236   3.008   3.544 -0.0135 -0.0421 -0.5961
  345CHL    CL2 1850   2.036   2.833   3.403  0.1440  0.2193  0.1023
  345CHL      H 1851   2.268   2.783   3.467  2.3472  0.9627 -1.2540
  346CHL     CL 1852   3.162   2.390   0.109  0.2631  0.3368 -0.0396
  346CHL      C 1853   2.985   2.386   0.145 -0.2725 -0.5977 -0.1862
  346CHL    CL1 1854   2.888   2.398  -0.003  0.0112 -0.0479  0.0194
  346CHL    CL2 1855   2.945   2.249   0.250  0.6346 -0.0808 -0.0202
  346CHL      H 1856   2.960   2.473   0.207  2.5104  0.2991 -0.1608
  347CHL     CL 1857   2.816   3.183   3.528 -0.0353  0.1229  0.1906
  347CHL      C 1858   2.905   3.316   3.590  0.1867  0.2223 -0.4210
  347CHL    CL1 1859   2.846   3.343   3.764  0.1834  0.0219  0.2242
  347CHL    CL2 1860   3.082   3.286   3.585 -0.4027 -0.1674  0.1586
  347CHL      H 1861   2.878   3.404   3.532 -0.6992  1.0412  1.1823
  348CHL     CL 1862   0.330   0.206   2.332 -0.2989  0.0351 -0.0837
  348CHL      C 1863   0.172   0.187   2.240 -0.0368 -0.8977 -0.4005
  348CHL    CL1 1864   0.209   0.128   2.073  0.0100 -0.2006 -0.0061
  348CHL    CL2 1865   0.064   0.083   2.333 -0.0203 -0.2079  0.3373
  348CHL      H 1866   0.121   0.284   2.247 -0.6352 -1.3069  1.3918
  349CHL     CL 1867   0.660   2.839   0.868  0.2668 -0.1295  0.3463
  349CHL      C 1868   0.714   2.887   0.713 -0.4565 -0.3199  0.9497
  349CHL    CL1 1869   0.578   2.982   0.656 -0.3050 -0.1214 -0.2243
  349CHL    CL2 1870   0.855   2.990   0.738  0.0934 -0.0481 -0.1330
  349CHL      H 1871   0.735   2.799   0.651 -0.9865  1.4727 -1.9553
  350CHL     CL 1872   3.376   0.954   0.774 -0.0864 -0.1091  0.4588
  350CHL      C 1873   3.459   1.007   0.931  0.0775 -0.1710  0.9213
  350CHL    CL1 1874   3.384   0.920   1.075  0.0382 -0.2784  0.2747
  350CHL    CL2 1875   3.635   0.982   0.918 -0.0464  0.4258  0.1337
  350CHL      H 1876   3.444   1.115   0.934  0.1194 -0.0900 -0.8260
  351CHL     CL 1877   2.432   3.255   3.364  0.2054  0.1899 -0.0259
  351CHL      C 1878   2.525   3.415   3.361  0.1981  0.4274  0.0447
  351CHL    CL1 1879   2.593   3.453   3.525  0.0459  0.1137 -0.0491
  351CHL    CL2 1880   2.653   3.407   3.230 -0.2845  0.3771  0.0341
  351CHL      H 1881   2.454   3.493   3.332 -0.4396 -0.2330 -0.1960
  352CHL     CL 1882   3.693   0.926   0.499  0.0071 -0.0897 -0.1642
  352CHL      C 1883   3.625   1.057   0.398 -0.3113  0.8002  0.0670
  352CHL    CL1 1884   3.448   1.082   0.403 -0.4360  0.0149  0.0606
  352CHL    CL2 1885   3.706   1.198   0.465 -0.3023 -0.1196  0.0771
  352CHL      H 1886   3.653   1.036   0.294  1.0044 -1.2177  0.7505
  353CHL     CL 1887   0.824   0.750   0.848 -0.0197 -0.1456 -0.3528
  353CHL      C 1888   0.734   0.656   0.730 -0.5336  0.1339 -0.7388
  353CHL    CL1 1889   0.837   0.647   0.575  0.3851 -0.1918 -0.5748
  353CHL    CL2 1890   0.705   0.499   0.809  0.1348  0.0949  0.9878
  353CHL      H 1891   0.645   0.719   0.718  0.1823  1.3339  0.0183
  354CHL     CL 1892   1.021   0.178   2.127  0.2518 -0.2306  0.1943
  354CHL      C 1893   1.194   0.215   2.149 -0.0632 -0.3743 -0.6321
  354CHL    CL1 1894   1.223   0.302   2.306 -0.0103 -0.6325 -0.2283
  354CHL    CL2 1895   1.285   0.060   2.147 -0.1287 -0.0571 -0.2297
  354CHL      H 1896   1.227   0.275   2.063 -2.2985  2.9554  0.6111
  355CHL     CL 1897   2.641   2.727   2.164 -0.1514 -0.0444 -0.6702
  355CHL      C 1898   2.460   2.708   2.153 -0.1681  0.3077  0.4640
  355CHL    CL1 1899   2.407   2.783   1.988  0.2020  0.3209 -0.1130
  355CHL    CL2 1900   2.411   2.537   2.139  0.0076  0.3049  0.4481
  355CHL      H 1901   2.407   2.753   2.238 -0.1115 -0.1802  0.7589
  356CHL     CL 1902   2.146   0.634   0.428 -0.4489 -0.2434 -0.1556
  356CHL      C 1903   2.177   0.798   0.485 -0.1877 -0.2591 -0.4600
  356CHL    CL1 1904   2.051   0.846   0.610 -0.4848 -0.6664 -0.2009
  356CHL    CL2 1905   2.349   0.814   0.559 -0.0088  0.2576 -0.0343
  356CHL      H 1906   2.161   0.855   0.393 -0.3052 -1.6229 -1.3075
  357CHL     CL 1907   3.478   0.058   3.412 -0.0384 -0.2458  0.4287
  357CHL      C 1908   3.632   0.139   3.457 -0.6572 -0.2170  0.3090
  357CHL    CL1 1909   3.605   0.275   3.572  0.4934  0.1412 -0.0956
  357CHL    CL2 1910   3.756   0.023   3.507 -0.1455  0.6862 -0.0398
  357CHL      H 1911   3.668   0.183   3.364 -1.7361  1.7286  0.7447
  358CHL     CL 1912   0.722   2.922   2.275 -0.2526  0.0734 -0.0408
  358CHL      C 1913   0.735   2.965   2.098 -0.3975  0.1503 -0.0723
  358CHL    CL1 1914   0.904   3.023   2.076  0.0735  0.2286 -0.2775
  358CHL    CL2 1915   0.707   2.823   2.006 -0.0798 -0.0028  0.3763
  358CHL      H 1916   0.673   3.047   2.062 -1.4830 -0.2831  0.7442
  359CHL     CL 1917   3.805   2.820   2.374 -0.3009  0.2899 -0.2808
  359CHL      C 1918   3.746   2.650   2.333 -0.2989  0.0745  0.6318
  359CHL    CL1 1919   3.892   2.547   2.311  0.4304  0.3328  0.0210
  359CHL    CL2 1920   3.640   2.570   2.459  0.1533  0.1343  0.1957
  359CHL      H 1921   3.696   2.646   2.235  1.1065 -1.2840 -0.0932
  360CHL     CL 1922   1.379   2.356   2.009 -0.4087  0.5114 -0.2547
  360CHL      C 1923   1.504   2.481   1.963 -0.2735 -0.1817  0.3187
  360CHL    CL1 1924   1.421   2.637   1.978 -0.6951  0.0677 -0.2572
  360CHL    CL2 1925   1.632   2.475   2.092 -0.4005  0.0435 -0.0722
  360CHL      H 1926   1.558   2.464   1.869  1.3968 -0.6200  1.3177
  361CHL     CL 1927   2.494   0.263   0.608 -0.0743  0.1209 -0.1584
  361CHL      C 1928   2.372   0.271   0.479 -0.1994 -0.6781 -0.3636
  361CHL    CL1 1929   2.211   0.305   0.553  0.7073 -0.1008 -0.2071
  361CHL    CL2 1930   2.418   0.394   0.361 -0.1124 -0.0447 -0.2439
  361CHL      H 1931   2.358   0.176   0.425 -1.5358 -0.7127  0.0215
  362CHL     CL 1932   0.047   2.024   1.914  0.1422  0.6092 -0.0570
  362CHL      C 1933   0.119   2.192   1.912  0.0824 -0.1707 -0.6234
  362CHL    CL1 1934   0.050   2.301   2.038  0.4172 -0.0410 -0.2353
  362CHL    CL2 1935   0.289   2.170   1.934 -0.1696  0.4100  0.0179
  362CHL      H 1936   0.098   2.245   1.818  0.7984 -0.3808 -0.9038
  363CHL     CL 1937   2.300   3.624   0.058 -0.1226 -0.2682  0.0900
  363CHL      C 1938   2.332   3.465   0.134  1.1119  0.3331  0.2758
  363CHL    CL1 1939   2.324   3.352  -0.008 -0.1949 -0.2363  0.3235
  363CHL    CL2 1940   2.492   3.457   0.203  0.0095 -0.3189 -0.2190
  363CHL      H 1941   2.258   3.426   0.204  3.1382 -0.7790  1.8979
  364CHL     CL 1942   1.347   0.412   0.908  0.0568 -0.1328 -0.3859
  364CHL      C 1943   1.205   0.526   0.903 -0.5814  0.0046 -0.1866
  364CHL    CL1 1944   1.101   0.470   0.779  0.0943  0.1396 -0.1228
  364CHL    CL2 1945   1.124   0.497   1.055  0.1035  0.3787 -0.1662
  364CHL      H 1946   1.237   0.631   0.903 -1.3994  0.2917  1.4775
  365CHL     CL 1947   2.626   3.621   0.766  0.0151  0.3315 -0.1977
  365CHL      C 1948   2.550   3.746   0.654 -0.2659  0.5585  0.2798
  365CHL    CL1 1949   2.569   3.690   0.490  0.6658  0.5006  0.2060
  365CHL    CL2 1950   2.376   3.788   0.694  0.0648  0.0671  0.2949
  365CHL      H 1951   2.611   3.834   0.672  0.4692 -0.2541  1.8813
  366CHL     CL 1952   2.091   3.155   1.545  0.4472  0.3186 -0.1117
  366CHL      C 1953   2.003   3.265   1.646 -0.0652  0.0614 -1.3936
  366CHL    CL1 1954   2.097   3.384   1.745 -0.0101  0.0848  0.3282
  366CHL    CL2 1955   1.901   3.365   1.536  0.4113  0.2978  0.2682
  366CHL      H 1956   1.934   3.214   1.714  2.2405 -1.7989 -0.3159
  367CHL     CL 1957   1.993   3.750   3.502  0.1925 -0.1403 -0.2737
  367CHL      C 1958   1.902   3.908   3.508 -0.2314  0.9025 -0.4045
  367CHL    CL1 1959   1.822   3.929   3.346  0.3038  0.1058 -0.3158
  367CHL    CL2 1960   1.788   3.903   3.644 -0.1055 -0.3778 -0.1025
  367CHL      H 1961   1.981   3.983   3.521  2.6347 -1.9996  0.3469
  368CHL     CL 1962   0.916   1.345   3.783 -0.0706 -0.1015 -0.0965
  368CHL      C 1963   0.991   1.177   3.804 -0.1897 -0.3952  0.5982
  368CHL    CL1 1964   1.026   1.160   3.975 -0.1493  0.3882  0.0578
  368CHL    CL2 1965   0.861   1.061   3.749 -0.2091 -0.2414  0.2142
  368CHL      H 1966   1.085   1.166   3.749  0.2458 -0.8467  1.4112
  369CHL     CL 1967   2.650   1.217   2.160  0.1874  0.3057 -0.0901
  369CHL      C 1968   2.615   1.060   2.239 -0.0739 -0.3991 -0.0474
  369CHL    CL1 1969   2.522   1.100   2.393 -0.3964 -0.0941 -0.2148
  369CHL    CL2 1970   2.511   0.964   2.132 -0.2117  0.2539 -0.0124
  369CHL      H 1971   2.712   1.016   2.260  0.2054 -0.1874 -0.8678
  370CHL     CL 1972   2.287   2.985   2.266 -0.0961  0.0081  0.2126
  370CHL      C 1973   2.272   3.073   2.430 -0.0679 -0.4596  0.3200
  370CHL    CL1 1974   2.427   3.186   2.451  0.0088 -0.4104 -0.3924
  370CHL    CL2 1975   2.122   3.174   2.442  0.1088 -0.2776  0.0803
  370CHL      H 1976   2.273   2.998   2.511 -0.8299  1.2304  1.9693
  371CHL     CL 1977   3.675   0.372   1.114  0.5339  0.0593 -0.2019
  371CHL      C 1978   3.556   0.501   1.168 -0.0666  0.1401  0.7140
  371CHL    CL1 1979   3.500   0.569   1.008  0.1355 -0.1940 -0.2641
  371CHL    CL2 1980   3.414   0.436   1.247  0.2571  0.3755 -0.2357
  371CHL      H 1981   3.606   0.579   1.226  2.4247 -1.2777  0.5960
  372CHL     CL 1982   1.918   1.701   1.634 -0.0466  0.1698 -0.0361
  372CHL      C 1983   2.085   1.659   1.687  0.4889 -0.2428  0.2332
  372CHL    CL1 1984   2.086   1.511   1.787 -0.2825  0.1657 -0.0466
  372CHL    CL2 1985   2.198   1.637   1.551  0.4030  0.6275  0.1256
  372CHL      H 1986   2.135   1.736   1.745 -1.5231  0.9428  0.4774
  373CHL     CL 1987   3.722   1.728   3.787 -0.0526  0.0653  0.0857
  373CHL      C 1988   3.566   1.761   3.715 -0.3473  0.9448 -0.2888
  373CHL    CL1 1989   3.527   1.932   3.704  0.1660  0.1515  0.4630
  373CHL    CL2 1990   3.552   1.697   3.538 -0.0751 -0.1906 -0.0308
  373CHL      H 1991   3.483   1.712   3.767  0.9139 -2.0791 -0.9318
  374CHL     CL 1992   2.205   2.118   3.103 -0.2445  0.3928 -0.5926
  374CHL      C 1993   2.374   2.116   3.169 -0.2410  0.5891 -0.5403
  374CHL    CL1 1994   2.377   2.195   3.330 -0.3570 -0.0552  0.1901
  374CHL    CL2 1995   2.429   1.939   3.168 -0.5048  0.4635 -0.0828
  374CHL      H 1996   2.438   2.176   3.103 -0.4339  0.6848 -0.6397
  375CHL     CL 1997   0.420   3.821   1.479  0.0655 -0.0575  0.0163
  375CHL      C 1998   0.419   3.822   1.662  0.1848  0.3396  0.3501
  375CHL    CL1 1999   0.345   3.969   1.736  0.4064 -0.1446 -0.1541
  375CHL    CL2 2000   0.319   3.682   1.711 -0.1261  0.1570 -0.2667
  375CHL      H 2001   0.515   3.804   1.711  0.6288 -0.9052 -0.9170
  376CHL     CL 2002   0.698   3.502   1.030  0.1396  0.0919  0.0607
  376CHL      C 2003   0.802   3.459   1.172  0.9238 -0.5835 -0.5128
  376CHL    CL1 2004   0.816   3.597   1.286 -0.0710 -0.1110 -0.1833
  376CHL    CL2 2005   0.703   3.344   1.270 -0.1833 -0.0428  0.1395
  376CHL      H 2006   0.899   3.414   1.147  1.3713  0.7622 -1.2952
  377CHL     CL 2007   3.192   1.387   0.405 -0.4187 -0.2715  0.7521
  377CHL      C 2008   3.355   1.462   0.441  0.3020  0.1108  0.1488
  377CHL    CL1 2009   3.408   1.581   0.308  0.4810  0.4793  0.0955
  377CHL    CL2 2010   3.353   1.540   0.597 -0.3272  0.1892  0.3548
  377CHL      H 2011   3.425   1.378   0.449 -0.8456 -0.7605  1.6660
  378CHL     CL 2012   3.800   2.160   1.562  0.3475  0.4001  0.3213
  378CHL      C 2013   3.635   2.198   1.614 -0.3837 -0.0072  0.0022
  378CHL    CL1 2014   3.572   2.331   1.510 -0.2631  0.4026 -0.0903
  378CHL    CL2 2015   3.531   2.058   1.612  0.0558  0.1334  0.6030
  378CHL      H 2016   3.637   2.225   1.721 -0.3467  2.4342 -0.5463
  379CHL     CL 2017   1.122   2.465   3.243 -0.7031 -0.3593 -0.2486
  379CHL      C 2018   0.949   2.426   3.288 -0.2964 -0.9470 -0.0264
  379CHL    CL1 2019   0.923   2.248   3.288 -0.0643 -0.2818 -0.5155
  379CHL    CL2 2020   0.895   2.510   3.437  0.2541 -0.5034  0.0825
  379CHL      H 2021   0.886   2.476   3.214 -1.0031 -2.5570 -0.5682
  380CHL     CL 2022   3.783   1.061   2.205 -0.1450  0.2784  0.4117
  380CHL      C 2023   3.643   1.032   2.315  0.5444 -0.1899  0.0600
  380CHL    CL1 2024   3.609   1.175   2.436 -0.3463  0.4232  0.2043
  380CHL    CL2 2025   3.482   1.006   2.232 -0.2471 -0.0649  0.3207
  380CHL      H 2026   3.660   0.940   2.371 -3.1232 -0.3626  1.1463
  381CHL     CL 2027   1.891   0.184   2.533  0.1924 -0.1373 -0.1612
  381CHL      C 2028   1.983   0.338   2.499  0.1029 -0.1629 -0.2449
  381CHL    CL1 2029   1.959   0.454   2.636  0.0124  0.1601  0.0264
  381CHL    CL2 2030   2.148   0.301   2.492 -0.3294 -0.2263  0.3064
  381CHL      H 2031   1.959   0.388   2.404  0.5294  0.4979 -0.0105
  382CHL     CL 2032   1.616   0.391   3.320  0.2750  0.0687 -0.0612
  382CHL      C 2033   1.602   0.533   3.429  0.7076 -0.2936  0.4331
  382CHL    CL1 2034   1.646   0.472   3.597  0.2626  0.3053  0.1696
  382CHL    CL2 2035   1.715   0.658   3.381 -0.2783 -0.4762 -0.2879
  382CHL      H 2036   1.502   0.577   3.421  0.0030 -2.1292 -1.8609
  383CHL     CL 2037   3.676   1.323   0.820  0.1716  0.1807 -0.1266
  383CHL      C 2038   3.711   1.443   0.954 -0.4103  0.0309 -0.2020
  383CHL    CL1 2039   3.605   1.407   1.101  0.1615 -0.2511 -0.0102
  383CHL    CL2 2040   3.884   1.433   1.005 -0.1247 -0.0816 -0.0555
  383CHL      H 2041   3.688   1.540   0.909 -2.7573 -0.1342  0.4577
  384CHL     CL 2042   0.024   2.693   3.412 -0.0460  0.0791  0.2454
  384CHL      C 2043   0.049   2.673   3.589  0.8759 -0.3522 -0.7728
  384CHL    CL1 2044   0.203   2.743   3.630  0.2363 -0.3910  0.2534
  384CHL    CL2 2045  -0.071   2.766   3.690  0.2297  0.2199 -0.3995
  384CHL      H 2046   0.043   2.570   3.626 -0.5936  0.6647  2.1629
  385CHL     CL 2047   3.033   3.579   1.402 -0.4251 -0.3523 -0.1542
  385CHL      C 2048   3.077   3.438   1.287  0.1610 -0.2316 -0.1414
  385CHL    CL1 2049   3.029   3.478   1.115 -0.0330  0.3452  0.3387
  385CHL    CL2 2050   3.257   3.411   1.303  0.1309  0.3957  0.0452
  385CHL      H 2051   3.018   3.353   1.322  1.7638 -1.2321  0.2568
  386CHL     CL 2052   1.595   0.777   1.805  0.1572  0.0603 -0.0256
  386CHL      C 2053   1.517   0.888   1.684 -0.4231  0.0170 -0.2886
  386CHL    CL1 2054   1.592   1.059   1.683  0.1680 -0.0391  0.3490
  386CHL    CL2 2055   1.520   0.808   1.527  0.0029 -0.3456  0.4051
  386CHL      H 2056   1.408   0.888   1.696 -0.3458  1.1357  0.6135
  387CHL     CL 2057   2.882   1.656   0.511  0.1911  0.0648 -0.0635
  387CHL      C 2058   2.922   1.833   0.521  0.2173 -0.7336 -0.1215
  387CHL    CL1 2059   3.078   1.870   0.583 -0.6191 -0.5366 -0.1277
  387CHL    CL2 2060   2.883   1.930   0.373 -0.0203  0.5331  0.4734
  387CHL      H 2061   2.857   1.866   0.603  0.7089  0.2716 -0.1117
  388CHL     CL 2062   3.098   0.796   2.262  0.1836 -0.4609  0.0053
  388CHL      C 2063   2.937   0.870   2.237  0.3572  0.3129 -0.1249
  388CHL    CL1 2064   2.877   0.793   2.081  0.1732 -0.0731  0.0295
  388CHL    CL2 2065   2.822   0.821   2.372  0.1203 -0.4096  0.0763
  388CHL      H 2066   2.940   0.979   2.232 -1.3000  0.3730 -0.4081
  389CHL     CL 2067   2.407   0.465   1.518  0.0296  0.3882 -0.0130
  389CHL      C 2068   2.365   0.619   1.423 -0.1256  0.1785 -0.3768
  389CHL    CL1 2069   2.521   0.725   1.411  0.0153 -0.1733  0.0344
  389CHL    CL2 2070   2.295   0.582   1.257 -0.1780 -0.0020 -0.2783
  389CHL      H 2071   2.289   0.673   1.480 -1.1674 -0.9323 -0.6854
  390CHL     CL 2072   1.559   1.976   3.812 -0.0563 -0.0751  0.0186
  390CHL      C 2073   1.595   1.862   3.944 -0.2044 -0.5288  0.3029
  390CHL    CL1 2074   1.759   1.794   3.917  0.1381 -0.0750  0.2813
  390CHL    CL2 2075   1.595   1.937   4.109 -0.0333 -0.1544 -0.0687
  390CHL      H 2076   1.522   1.781   3.947  0.4793 -1.1363  2.2488
  391CHL     CL 2077   2.573   0.904   0.904 -0.0399  0.3209 -0.4033
  391CHL      C 2078   2.645   0.987   1.039 -0.6953  0.8957 -0.5619
  391CHL    CL1 2079   2.692   0.880   1.163  0.2085  0.1594 -0.2224
  391CHL    CL2 2080   2.800   1.072   0.987  0.1569  0.1034  0.0299
  391CHL      H 2081   2.579   1.065   1.076  0.6058  2.2368 -0.9756
  392CHL     CL 2082   3.790   0.395   2.477 -0.2298  0.1258 -0.2124
  392CHL      C 2083   3.880   0.544   2.433  0.2371  0.0635 -0.5286
  392CHL    CL1 2084   3.895   0.567   2.256 -0.1096  0.4348 -0.1727
  392CHL    CL2 2085   3.775   0.686   2.500 -0.1301 -0.1559  0.1632
  392CHL      H 2086   3.976   0.546   2.485 -0.5403  3.2051  1.0711
  393CHL     CL 2087   3.529   0.148   1.483  0.1193  0.2019  0.0289
  393CHL      C 2088   3.462   0.012   1.385 -0.0931 -0.5849  0.2132
  393CHL    CL1 2089   3.506   0.044   1.218 -0.1389  0.1991  0.0675
  393CHL    CL2 2090   3.538  -0.144   1.446  0.0263 -0.1703  0.4874
  393CHL      H 2091   3.352   0.012   1.384 -0.1156 -1.7763  0.3493
  394CHL     CL 2092   0.156   1.737   1.538 -0.1730 -0.0892 -0.0387
  394CHL      C 2093   0.037   1.641   1.443  0.3216 -0.5006 -0.0190
  394CHL    CL1 2094  -0.088   1.744   1.366  0.0024 -0.0312  0.2333
  394CHL    CL2 2095   0.129   1.547   1.309 -0.0380 -0.3944 -0.3123
  394CHL      H 2096   0.001   1.561   1.509 -1.7053 -0.3794 -0.9049
  395CHL     CL 2097   2.513   3.272   0.603  0.0389  0.2502 -0.0628
  395CHL      C 2098   2.347   3.317   0.539 -0.9864 -0.6171  0.1012
  395CHL    CL1 2099   2.296   3.212   0.405  0.3202 -0.3584 -0.3024
  395CHL    CL2 2100   2.233   3.316   0.682  0.0938  0.0497  0.1498
  395CHL      H 2101   2.347   3.423   0.509  1.7586 -0.2175  1.2372
  396CHL     CL 2102   3.640   2.425   0.518  0.1251  0.2736 -0.1908
  396CHL      C 2103   3.497   2.344   0.440  0.5946 -0.6744 -0.6992
  396CHL    CL1 2104   3.340   2.441   0.470  0.0917 -0.2312 -0.0314
  396CHL    CL2 2105   3.520   2.331   0.265  0.3116  0.1549  0.0120
  396CHL      H 2106   3.483   2.248   0.490 -1.3652  0.5103  1.2759
  397CL      CL 2107   1.242   0.655   3.353 -0.2464  0.0659 -0.4858
   3.82164   3.82164   3.82164
